<?xml version="1.0" encoding="UTF-8"?>

<!-- generated on 2024-07-08 17:38:29 by Eclipse SUMO libsumo Version 1.20.0
<configuration xmlns:xsi="http://www.w3.org/2001/XMLSchema-instance" xsi:noNamespaceSchemaLocation="http://sumo.dlr.de/xsd/libsumoConfiguration.xsd">

    <input>
        <net-file value="D:\trg1vr\sumo-rl\sumo_rl\nets\2way-single-intersection\2-stage.xml"/>
        <route-files value="autodl-tmp\outputs\2_0.7-0.7-0.7-0.7\output.rou.xml"/>
    </input>

    <output>
        <tripinfo-output value="autodl-tmp\outputs\2_0.7-0.7-0.7-0.7\tripinfos-1.xml"/>
    </output>

    <processing>
        <time-to-teleport value="-1"/>
        <waiting-time-memory value="1000"/>
        <max-depart-delay value="-1"/>
    </processing>

    <emissions>
        <device.emissions.probability value="1.0"/>
    </emissions>

    <random_number>
        <seed value="11"/>
    </random_number>

</configuration>
-->

<tripinfos xmlns:xsi="http://www.w3.org/2001/XMLSchema-instance" xsi:noNamespaceSchemaLocation="http://sumo.dlr.de/xsd/tripinfo_file.xsd">
    <tripinfo id="flow08.0" depart="2.00" departLane="w_t_0" departPos="5.10" departSpeed="0.00" departDelay="0.70" arrival="29.00" arrivalLane="t_s_0" arrivalPos="136.25" arrivalSpeed="12.87" duration="27.00" routeLength="293.40" waitingTime="0.00" waitingCount="0" stopTime="0.00" timeLoss="4.68" rerouteNo="0" devices="tripinfo_flow08.0 emissions_flow08.0" vType="CarA" speedFactor="0.98" vaporized="">
        <emissions CO_abs="1232.739237" CO2_abs="88275.381013" HC_abs="7.620350" PMx_abs="1.400698" NOx_abs="34.850505" fuel_abs="28155.903217" electricity_abs="0"/>
    </tripinfo>
    <tripinfo id="flow04.0" depart="5.00" departLane="s_t_0" departPos="5.10" departSpeed="0.00" departDelay="0.36" arrival="32.00" arrivalLane="t_n_0" arrivalPos="136.25" arrivalSpeed="13.55" duration="27.00" routeLength="294.90" waitingTime="0.00" waitingCount="0" stopTime="0.00" timeLoss="4.72" rerouteNo="0" devices="tripinfo_flow04.0 emissions_flow04.0" vType="CarA" speedFactor="0.98" vaporized="">
        <emissions CO_abs="1507.534020" CO2_abs="96871.813626" HC_abs="9.120111" PMx_abs="1.759139" NOx_abs="39.887809" fuel_abs="30897.613228" electricity_abs="0"/>
    </tripinfo>
    <tripinfo id="flow04.1" depart="13.00" departLane="s_t_0" departPos="5.10" departSpeed="0.00" departDelay="0.19" arrival="41.00" arrivalLane="t_n_0" arrivalPos="136.25" arrivalSpeed="11.60" duration="28.00" routeLength="294.90" waitingTime="0.00" waitingCount="0" stopTime="0.00" timeLoss="4.16" rerouteNo="0" devices="tripinfo_flow04.1 emissions_flow04.1" vType="CarA" speedFactor="0.90" vaporized="">
        <emissions CO_abs="1134.471910" CO2_abs="78535.072197" HC_abs="6.920282" PMx_abs="1.178362" NOx_abs="30.561346" fuel_abs="25049.283525" electricity_abs="0"/>
    </tripinfo>
    <tripinfo id="flow05.0" depart="16.00" departLane="s_t_0" departPos="5.10" departSpeed="0.00" departDelay="2.96" arrival="41.00" arrivalLane="t_w_0" arrivalPos="136.25" arrivalSpeed="14.70" duration="25.00" routeLength="279.21" waitingTime="0.00" waitingCount="0" stopTime="0.00" timeLoss="5.38" rerouteNo="0" devices="tripinfo_flow05.0 emissions_flow05.0" vType="CarA" speedFactor="1.11" vaporized="">
        <emissions CO_abs="1644.692474" CO2_abs="107595.446495" HC_abs="9.986115" PMx_abs="1.949807" NOx_abs="44.131577" fuel_abs="34317.949992" electricity_abs="0"/>
    </tripinfo>
    <tripinfo id="flow04.2" depart="19.00" departLane="s_t_0" departPos="5.10" departSpeed="0.00" departDelay="4.36" arrival="46.00" arrivalLane="t_n_0" arrivalPos="136.25" arrivalSpeed="12.57" duration="27.00" routeLength="294.90" waitingTime="0.00" waitingCount="0" stopTime="0.00" timeLoss="3.79" rerouteNo="0" devices="tripinfo_flow04.2 emissions_flow04.2" vType="CarA" speedFactor="0.93" vaporized="">
        <emissions CO_abs="1076.897617" CO2_abs="79317.176445" HC_abs="6.611123" PMx_abs="1.186979" NOx_abs="30.672954" fuel_abs="25298.707604" electricity_abs="0"/>
    </tripinfo>
    <tripinfo id="flow01.0" depart="20.00" departLane="n_t_0" departPos="5.10" departSpeed="0.00" departDelay="0.53" arrival="47.00" arrivalLane="t_s_0" arrivalPos="136.25" arrivalSpeed="12.15" duration="27.00" routeLength="294.90" waitingTime="0.00" waitingCount="0" stopTime="0.00" timeLoss="4.24" rerouteNo="0" devices="tripinfo_flow01.0 emissions_flow01.0" vType="CarA" speedFactor="0.95" vaporized="">
        <emissions CO_abs="1059.970284" CO2_abs="80719.370611" HC_abs="6.674972" PMx_abs="1.164246" NOx_abs="31.007675" fuel_abs="25745.974853" electricity_abs="0"/>
    </tripinfo>
    <tripinfo id="flow04.3" depart="21.00" departLane="s_t_0" departPos="5.10" departSpeed="0.00" departDelay="2.52" arrival="48.00" arrivalLane="t_n_0" arrivalPos="136.25" arrivalSpeed="13.57" duration="27.00" routeLength="294.90" waitingTime="0.00" waitingCount="0" stopTime="0.00" timeLoss="5.32" rerouteNo="0" devices="tripinfo_flow04.3 emissions_flow04.3" vType="CarA" speedFactor="1.01" vaporized="">
        <emissions CO_abs="1408.511198" CO2_abs="91301.754259" HC_abs="8.456603" PMx_abs="1.562189" NOx_abs="36.636201" fuel_abs="29121.136717" electricity_abs="0"/>
    </tripinfo>
    <tripinfo id="flow05.1" depart="24.00" departLane="s_t_0" departPos="5.10" departSpeed="0.00" departDelay="5.62" arrival="49.00" arrivalLane="t_w_0" arrivalPos="136.25" arrivalSpeed="15.31" duration="25.00" routeLength="279.21" waitingTime="0.00" waitingCount="0" stopTime="0.00" timeLoss="5.62" rerouteNo="0" devices="tripinfo_flow05.1 emissions_flow05.1" vType="CarA" speedFactor="1.12" vaporized="">
        <emissions CO_abs="1811.334437" CO2_abs="111545.406487" HC_abs="10.840453" PMx_abs="2.128066" NOx_abs="46.268848" fuel_abs="35577.748213" electricity_abs="0"/>
    </tripinfo>
    <tripinfo id="flow01.1" depart="23.00" departLane="n_t_0" departPos="5.10" departSpeed="0.00" departDelay="1.78" arrival="49.00" arrivalLane="t_s_0" arrivalPos="136.25" arrivalSpeed="13.84" duration="26.00" routeLength="294.90" waitingTime="0.00" waitingCount="0" stopTime="0.00" timeLoss="5.50" rerouteNo="0" devices="tripinfo_flow01.1 emissions_flow01.1" vType="CarA" speedFactor="1.07" vaporized="">
        <emissions CO_abs="1343.862081" CO2_abs="95673.261418" HC_abs="8.208542" PMx_abs="1.594279" NOx_abs="38.022980" fuel_abs="30515.417627" electricity_abs="0"/>
    </tripinfo>
    <tripinfo id="flow09.0" depart="15.00" departLane="w_t_0" departPos="5.10" departSpeed="0.00" departDelay="0.31" arrival="54.00" arrivalLane="t_n_0" arrivalPos="136.25" arrivalSpeed="14.81" duration="39.00" routeLength="279.21" waitingTime="11.00" waitingCount="1" stopTime="0.00" timeLoss="20.03" rerouteNo="0" devices="tripinfo_flow09.0 emissions_flow09.0" vType="CarA" speedFactor="1.11" vaporized="">
        <emissions CO_abs="3963.699011" CO2_abs="151426.990746" HC_abs="21.517566" PMx_abs="2.978717" NOx_abs="63.750820" fuel_abs="48298.932219" electricity_abs="0"/>
    </tripinfo>
    <tripinfo id="flow11.0" depart="13.00" departLane="e_t_0" departPos="5.10" departSpeed="0.00" departDelay="0.75" arrival="55.00" arrivalLane="t_s_0" arrivalPos="136.25" arrivalSpeed="14.16" duration="42.00" routeLength="279.21" waitingTime="11.00" waitingCount="1" stopTime="0.00" timeLoss="20.89" rerouteNo="0" devices="tripinfo_flow11.0 emissions_flow11.0" vType="CarA" speedFactor="1.03" vaporized="">
        <emissions CO_abs="4006.138159" CO2_abs="148679.857381" HC_abs="21.631120" PMx_abs="2.894981" NOx_abs="62.545169" fuel_abs="47422.814196" electricity_abs="0"/>
    </tripinfo>
    <tripinfo id="flow07.0" depart="4.00" departLane="w_t_0" departPos="5.10" departSpeed="0.00" departDelay="0.35" arrival="56.00" arrivalLane="t_e_0" arrivalPos="136.25" arrivalSpeed="13.32" duration="52.00" routeLength="294.90" waitingTime="20.00" waitingCount="1" stopTime="0.00" timeLoss="30.59" rerouteNo="0" devices="tripinfo_flow07.0 emissions_flow07.0" vType="CarA" speedFactor="1.02" vaporized="">
        <emissions CO_abs="5636.800751" CO2_abs="172642.195700" HC_abs="29.649934" PMx_abs="3.573588" NOx_abs="74.094349" fuel_abs="55066.202735" electricity_abs="0"/>
    </tripinfo>
    <tripinfo id="flow10.0" depart="26.00" departLane="e_t_0" departPos="5.10" departSpeed="0.00" departDelay="0.41" arrival="56.00" arrivalLane="t_w_0" arrivalPos="136.25" arrivalSpeed="11.55" duration="30.00" routeLength="294.90" waitingTime="0.00" waitingCount="0" stopTime="0.00" timeLoss="5.20" rerouteNo="0" devices="tripinfo_flow10.0 emissions_flow10.0" vType="CarA" speedFactor="0.86" vaporized="">
        <emissions CO_abs="1455.703740" CO2_abs="97774.480128" HC_abs="8.863184" PMx_abs="1.512446" NOx_abs="38.561833" fuel_abs="31185.783818" electricity_abs="0"/>
    </tripinfo>
    <tripinfo id="flow07.1" depart="6.00" departLane="w_t_0" departPos="5.10" departSpeed="0.00" departDelay="1.10" arrival="58.00" arrivalLane="t_e_0" arrivalPos="136.25" arrivalSpeed="12.59" duration="52.00" routeLength="294.90" waitingTime="20.00" waitingCount="1" stopTime="0.00" timeLoss="30.45" rerouteNo="0" devices="tripinfo_flow07.1 emissions_flow07.1" vType="CarA" speedFactor="0.99" vaporized="">
        <emissions CO_abs="5615.873326" CO2_abs="171209.977745" HC_abs="29.544610" PMx_abs="3.505106" NOx_abs="73.274437" fuel_abs="54609.446510" electricity_abs="0"/>
    </tripinfo>
    <tripinfo id="flow11.1" depart="16.00" departLane="e_t_0" departPos="5.10" departSpeed="0.00" departDelay="1.77" arrival="58.00" arrivalLane="t_s_0" arrivalPos="136.25" arrivalSpeed="11.97" duration="42.00" routeLength="279.21" waitingTime="9.00" waitingCount="1" stopTime="0.00" timeLoss="19.25" rerouteNo="0" devices="tripinfo_flow11.1 emissions_flow11.1" vType="CarA" speedFactor="0.93" vaporized="">
        <emissions CO_abs="3610.025185" CO2_abs="129781.822155" HC_abs="19.438728" PMx_abs="2.428107" NOx_abs="54.154686" fuel_abs="41395.290766" electricity_abs="0"/>
    </tripinfo>
    <tripinfo id="flow05.2" depart="30.00" departLane="s_t_0" departPos="5.10" departSpeed="0.00" departDelay="7.53" arrival="62.00" arrivalLane="t_w_0" arrivalPos="136.25" arrivalSpeed="16.26" duration="32.00" routeLength="279.21" waitingTime="4.00" waitingCount="1" stopTime="0.00" timeLoss="15.33" rerouteNo="0" devices="tripinfo_flow05.2 emissions_flow05.2" vType="CarA" speedFactor="1.25" vaporized="">
        <emissions CO_abs="3263.829935" CO2_abs="147397.246304" HC_abs="18.383531" PMx_abs="3.053728" NOx_abs="63.223095" fuel_abs="47013.069450" electricity_abs="0"/>
    </tripinfo>
    <tripinfo id="flow12.0" depart="32.00" departLane="e_t_0" departPos="5.10" departSpeed="0.00" departDelay="6.77" arrival="63.00" arrivalLane="t_n_0" arrivalPos="136.25" arrivalSpeed="13.78" duration="31.00" routeLength="293.40" waitingTime="0.00" waitingCount="0" stopTime="0.00" timeLoss="9.23" rerouteNo="0" devices="tripinfo_flow12.0 emissions_flow12.0" vType="CarA" speedFactor="1.03" vaporized="">
        <emissions CO_abs="2167.787203" CO2_abs="115212.554891" HC_abs="12.524468" PMx_abs="2.181805" NOx_abs="48.053621" fuel_abs="36747.582743" electricity_abs="0"/>
    </tripinfo>
    <tripinfo id="flow05.3" depart="36.00" departLane="s_t_0" departPos="5.10" departSpeed="0.00" departDelay="8.35" arrival="64.00" arrivalLane="t_w_0" arrivalPos="136.25" arrivalSpeed="16.88" duration="28.00" routeLength="279.21" waitingTime="1.00" waitingCount="1" stopTime="0.00" timeLoss="11.55" rerouteNo="0" devices="tripinfo_flow05.3 emissions_flow05.3" vType="CarA" speedFactor="1.30" vaporized="">
        <emissions CO_abs="2842.629822" CO2_abs="146106.362001" HC_abs="16.449227" PMx_abs="3.044625" NOx_abs="62.845743" fuel_abs="46601.061514" electricity_abs="0"/>
    </tripinfo>
    <tripinfo id="flow01.2" depart="42.00" departLane="n_t_0" departPos="5.10" departSpeed="0.00" departDelay="0.31" arrival="65.00" arrivalLane="t_s_0" arrivalPos="136.25" arrivalSpeed="15.30" duration="23.00" routeLength="294.90" waitingTime="0.00" waitingCount="0" stopTime="0.00" timeLoss="4.46" rerouteNo="0" devices="tripinfo_flow01.2 emissions_flow01.2" vType="CarA" speedFactor="1.14" vaporized="">
        <emissions CO_abs="1228.515679" CO2_abs="92714.949868" HC_abs="7.641540" PMx_abs="1.538005" NOx_abs="36.476511" fuel_abs="29571.821971" electricity_abs="0"/>
    </tripinfo>
    <tripinfo id="flow04.4" depart="27.00" departLane="s_t_0" departPos="5.10" departSpeed="0.00" departDelay="7.25" arrival="66.00" arrivalLane="t_n_0" arrivalPos="136.25" arrivalSpeed="11.80" duration="39.00" routeLength="294.90" waitingTime="5.00" waitingCount="1" stopTime="0.00" timeLoss="15.64" rerouteNo="0" devices="tripinfo_flow04.4 emissions_flow04.4" vType="CarA" speedFactor="0.94" vaporized="">
        <emissions CO_abs="3058.681095" CO2_abs="131280.455862" HC_abs="16.958395" PMx_abs="2.374722" NOx_abs="54.081626" fuel_abs="41873.025264" electricity_abs="0"/>
    </tripinfo>
    <tripinfo id="flow04.5" depart="33.00" departLane="s_t_0" departPos="5.10" departSpeed="0.00" departDelay="7.21" arrival="67.00" arrivalLane="t_n_0" arrivalPos="136.25" arrivalSpeed="12.99" duration="34.00" routeLength="294.90" waitingTime="1.00" waitingCount="1" stopTime="0.00" timeLoss="12.66" rerouteNo="0" devices="tripinfo_flow04.5 emissions_flow04.5" vType="CarA" speedFactor="1.00" vaporized="">
        <emissions CO_abs="2460.506004" CO2_abs="118084.421266" HC_abs="13.976703" PMx_abs="2.281362" NOx_abs="49.818600" fuel_abs="37663.669679" electricity_abs="0"/>
    </tripinfo>
    <tripinfo id="flow05.4" depart="39.00" departLane="s_t_0" departPos="5.10" departSpeed="0.00" departDelay="11.16" arrival="68.00" arrivalLane="t_w_0" arrivalPos="136.25" arrivalSpeed="14.07" duration="29.00" routeLength="279.21" waitingTime="0.00" waitingCount="0" stopTime="0.00" timeLoss="8.78" rerouteNo="0" devices="tripinfo_flow05.4 emissions_flow05.4" vType="CarA" speedFactor="1.06" vaporized="">
        <emissions CO_abs="1942.076820" CO2_abs="113841.041285" HC_abs="11.493702" PMx_abs="2.088991" NOx_abs="46.990650" fuel_abs="36310.091821" electricity_abs="0"/>
    </tripinfo>
    <tripinfo id="flow04.6" depart="44.00" departLane="s_t_0" departPos="5.10" departSpeed="0.00" departDelay="13.00" arrival="73.00" arrivalLane="t_n_0" arrivalPos="136.25" arrivalSpeed="10.62" duration="29.00" routeLength="294.90" waitingTime="0.00" waitingCount="0" stopTime="0.00" timeLoss="3.63" rerouteNo="0" devices="tripinfo_flow04.6 emissions_flow04.6" vType="CarA" speedFactor="0.85" vaporized="">
        <emissions CO_abs="1145.907981" CO2_abs="77193.353532" HC_abs="6.977849" PMx_abs="1.188844" NOx_abs="30.366963" fuel_abs="24621.314411" electricity_abs="0"/>
    </tripinfo>
    <tripinfo id="flow06.0" depart="42.00" departLane="s_t_0" departPos="5.10" departSpeed="0.00" departDelay="14.22" arrival="75.00" arrivalLane="t_e_0" arrivalPos="136.25" arrivalSpeed="10.67" duration="33.00" routeLength="293.40" waitingTime="0.00" waitingCount="0" stopTime="0.00" timeLoss="5.11" rerouteNo="0" devices="tripinfo_flow06.0 emissions_flow06.0" vType="CarA" speedFactor="0.79" vaporized="">
        <emissions CO_abs="1584.396548" CO2_abs="89525.535752" HC_abs="9.269235" PMx_abs="1.370505" NOx_abs="35.463961" fuel_abs="28554.887271" electricity_abs="0"/>
    </tripinfo>
    <tripinfo id="flow05.5" depart="49.00" departLane="s_t_0" departPos="5.10" departSpeed="0.00" departDelay="1.65" arrival="76.00" arrivalLane="t_w_0" arrivalPos="136.25" arrivalSpeed="13.11" duration="27.00" routeLength="279.21" waitingTime="0.00" waitingCount="0" stopTime="0.00" timeLoss="5.67" rerouteNo="0" devices="tripinfo_flow05.5 emissions_flow05.5" vType="CarA" speedFactor="1.01" vaporized="">
        <emissions CO_abs="1611.883689" CO2_abs="96257.609620" HC_abs="9.502157" PMx_abs="1.705166" NOx_abs="39.313127" fuel_abs="30701.821743" electricity_abs="0"/>
    </tripinfo>
    <tripinfo id="flow06.1" depart="46.00" departLane="s_t_0" departPos="5.10" departSpeed="0.00" departDelay="13.96" arrival="77.00" arrivalLane="t_e_0" arrivalPos="136.25" arrivalSpeed="12.73" duration="31.00" routeLength="293.40" waitingTime="0.00" waitingCount="0" stopTime="0.00" timeLoss="7.36" rerouteNo="0" devices="tripinfo_flow06.1 emissions_flow06.1" vType="CarA" speedFactor="0.95" vaporized="">
        <emissions CO_abs="1891.412741" CO2_abs="111204.259262" HC_abs="11.195807" PMx_abs="2.013861" NOx_abs="45.977378" fuel_abs="35469.090019" electricity_abs="0"/>
    </tripinfo>
    <tripinfo id="flow06.2" depart="48.00" departLane="s_t_0" departPos="5.10" departSpeed="0.00" departDelay="11.29" arrival="78.00" arrivalLane="t_e_0" arrivalPos="136.25" arrivalSpeed="12.91" duration="30.00" routeLength="293.40" waitingTime="0.00" waitingCount="0" stopTime="0.00" timeLoss="7.89" rerouteNo="0" devices="tripinfo_flow06.2 emissions_flow06.2" vType="CarA" speedFactor="0.98" vaporized="">
        <emissions CO_abs="1875.599219" CO2_abs="113233.130612" HC_abs="11.204216" PMx_abs="2.046235" NOx_abs="46.847582" fuel_abs="36116.180434" electricity_abs="0"/>
    </tripinfo>
    <tripinfo id="flow04.7" depart="52.00" departLane="s_t_0" departPos="5.10" departSpeed="0.00" departDelay="0.03" arrival="79.00" arrivalLane="t_n_0" arrivalPos="136.25" arrivalSpeed="12.31" duration="27.00" routeLength="294.90" waitingTime="0.00" waitingCount="0" stopTime="0.00" timeLoss="3.75" rerouteNo="0" devices="tripinfo_flow04.7 emissions_flow04.7" vType="CarA" speedFactor="0.93" vaporized="">
        <emissions CO_abs="1112.791890" CO2_abs="80109.333761" HC_abs="6.893101" PMx_abs="1.237969" NOx_abs="31.392667" fuel_abs="25551.337074" electricity_abs="0"/>
    </tripinfo>
    <tripinfo id="flow04.8" depart="56.00" departLane="s_t_0" departPos="5.10" departSpeed="0.00" departDelay="2.37" arrival="81.00" arrivalLane="t_n_0" arrivalPos="136.25" arrivalSpeed="13.91" duration="25.00" routeLength="294.90" waitingTime="0.00" waitingCount="0" stopTime="0.00" timeLoss="4.39" rerouteNo="0" devices="tripinfo_flow04.8 emissions_flow04.8" vType="CarA" speedFactor="1.07" vaporized="">
        <emissions CO_abs="1231.910644" CO2_abs="88468.143419" HC_abs="7.515716" PMx_abs="1.488331" NOx_abs="35.130456" fuel_abs="28217.288044" electricity_abs="0"/>
    </tripinfo>
    <tripinfo id="flow06.3" depart="55.00" departLane="s_t_0" departPos="5.10" departSpeed="0.00" departDelay="3.22" arrival="82.00" arrivalLane="t_e_0" arrivalPos="136.25" arrivalSpeed="12.83" duration="27.00" routeLength="293.40" waitingTime="0.00" waitingCount="0" stopTime="0.00" timeLoss="5.23" rerouteNo="0" devices="tripinfo_flow06.3 emissions_flow06.3" vType="CarA" speedFactor="0.99" vaporized="">
        <emissions CO_abs="1547.213369" CO2_abs="98284.060108" HC_abs="9.358613" PMx_abs="1.764337" NOx_abs="40.358405" fuel_abs="31348.091277" electricity_abs="0"/>
    </tripinfo>
    <tripinfo id="flow04.9" depart="58.00" departLane="s_t_0" departPos="5.10" departSpeed="0.00" departDelay="0.52" arrival="85.00" arrivalLane="t_n_0" arrivalPos="136.25" arrivalSpeed="12.09" duration="27.00" routeLength="294.90" waitingTime="0.00" waitingCount="0" stopTime="0.00" timeLoss="3.95" rerouteNo="0" devices="tripinfo_flow04.9 emissions_flow04.9" vType="CarA" speedFactor="0.93" vaporized="">
        <emissions CO_abs="1077.642138" CO2_abs="75843.160700" HC_abs="6.527008" PMx_abs="1.150977" NOx_abs="29.423503" fuel_abs="24190.657100" electricity_abs="0"/>
    </tripinfo>
    <tripinfo id="flow01.3" depart="61.00" departLane="n_t_0" departPos="5.10" departSpeed="0.00" departDelay="0.42" arrival="87.00" arrivalLane="t_s_0" arrivalPos="136.25" arrivalSpeed="12.82" duration="26.00" routeLength="294.90" waitingTime="0.00" waitingCount="0" stopTime="0.00" timeLoss="4.27" rerouteNo="0" devices="tripinfo_flow01.3 emissions_flow01.3" vType="CarA" speedFactor="1.01" vaporized="">
        <emissions CO_abs="1155.466544" CO2_abs="81071.976324" HC_abs="6.951721" PMx_abs="1.273406" NOx_abs="31.577656" fuel_abs="25858.362366" electricity_abs="0"/>
    </tripinfo>
    <tripinfo id="flow04.10" depart="61.00" departLane="s_t_0" departPos="5.10" departSpeed="0.00" departDelay="0.62" arrival="87.00" arrivalLane="t_n_0" arrivalPos="136.25" arrivalSpeed="14.49" duration="26.00" routeLength="294.90" waitingTime="0.00" waitingCount="0" stopTime="0.00" timeLoss="6.52" rerouteNo="0" devices="tripinfo_flow04.10 emissions_flow04.10" vType="CarA" speedFactor="1.12" vaporized="">
        <emissions CO_abs="1382.942710" CO2_abs="95298.033123" HC_abs="8.432843" PMx_abs="1.629717" NOx_abs="38.220637" fuel_abs="30395.714770" electricity_abs="0"/>
    </tripinfo>
    <tripinfo id="flow02.0" depart="46.00" departLane="n_t_0" departPos="5.10" departSpeed="0.00" departDelay="0.51" arrival="91.00" arrivalLane="t_w_0" arrivalPos="136.25" arrivalSpeed="13.61" duration="45.00" routeLength="293.40" waitingTime="15.00" waitingCount="1" stopTime="0.00" timeLoss="23.30" rerouteNo="0" devices="tripinfo_flow02.0 emissions_flow02.0" vType="CarA" speedFactor="1.02" vaporized="">
        <emissions CO_abs="4421.142814" CO2_abs="150623.185041" HC_abs="23.616645" PMx_abs="3.034707" NOx_abs="63.948136" fuel_abs="48042.778603" electricity_abs="0"/>
    </tripinfo>
    <tripinfo id="flow04.11" depart="69.00" departLane="s_t_0" departPos="5.10" departSpeed="0.00" departDelay="0.35" arrival="93.00" arrivalLane="t_n_0" arrivalPos="136.25" arrivalSpeed="15.11" duration="24.00" routeLength="294.90" waitingTime="0.00" waitingCount="0" stopTime="0.00" timeLoss="4.70" rerouteNo="0" devices="tripinfo_flow04.11 emissions_flow04.11" vType="CarA" speedFactor="1.13" vaporized="">
        <emissions CO_abs="1505.885171" CO2_abs="102622.042745" HC_abs="9.168113" PMx_abs="1.852162" NOx_abs="41.648430" fuel_abs="32731.635916" electricity_abs="0"/>
    </tripinfo>
    <tripinfo id="flow03.0" depart="70.00" departLane="n_t_0" departPos="5.10" departSpeed="0.00" departDelay="3.24" arrival="95.00" arrivalLane="t_e_0" arrivalPos="136.25" arrivalSpeed="13.55" duration="25.00" routeLength="279.21" waitingTime="0.00" waitingCount="0" stopTime="0.00" timeLoss="4.77" rerouteNo="0" devices="tripinfo_flow03.0 emissions_flow03.0" vType="CarA" speedFactor="1.04" vaporized="">
        <emissions CO_abs="1583.775336" CO2_abs="101899.280226" HC_abs="9.518518" PMx_abs="1.862080" NOx_abs="41.762558" fuel_abs="32501.132023" electricity_abs="0"/>
    </tripinfo>
    <tripinfo id="flow01.4" depart="67.00" departLane="n_t_0" departPos="5.10" departSpeed="0.00" departDelay="0.61" arrival="96.00" arrivalLane="t_s_0" arrivalPos="136.25" arrivalSpeed="11.75" duration="29.00" routeLength="294.90" waitingTime="0.00" waitingCount="0" stopTime="0.00" timeLoss="3.23" rerouteNo="0" devices="tripinfo_flow01.4 emissions_flow01.4" vType="CarA" speedFactor="0.85" vaporized="">
        <emissions CO_abs="1151.247113" CO2_abs="82954.070060" HC_abs="7.137725" PMx_abs="1.234346" NOx_abs="32.295392" fuel_abs="26458.732510" electricity_abs="0"/>
    </tripinfo>
    <tripinfo id="flow01.5" depart="75.00" departLane="n_t_0" departPos="5.10" departSpeed="0.00" departDelay="0.26" arrival="99.00" arrivalLane="t_s_0" arrivalPos="136.25" arrivalSpeed="14.76" duration="24.00" routeLength="294.90" waitingTime="0.00" waitingCount="0" stopTime="0.00" timeLoss="4.12" rerouteNo="0" devices="tripinfo_flow01.5 emissions_flow01.5" vType="CarA" speedFactor="1.09" vaporized="">
        <emissions CO_abs="1305.336030" CO2_abs="91458.371212" HC_abs="8.028516" PMx_abs="1.603877" NOx_abs="36.817644" fuel_abs="29170.985262" electricity_abs="0"/>
    </tripinfo>
    <tripinfo id="flow05.6" depart="75.00" departLane="s_t_0" departPos="5.10" departSpeed="0.00" departDelay="0.71" arrival="102.00" arrivalLane="t_w_0" arrivalPos="136.25" arrivalSpeed="13.33" duration="27.00" routeLength="279.21" waitingTime="0.00" waitingCount="0" stopTime="0.00" timeLoss="5.86" rerouteNo="0" devices="tripinfo_flow05.6 emissions_flow05.6" vType="CarA" speedFactor="0.97" vaporized="">
        <emissions CO_abs="1505.833076" CO2_abs="93419.173509" HC_abs="9.028496" PMx_abs="1.615701" NOx_abs="37.969818" fuel_abs="29796.505835" electricity_abs="0"/>
    </tripinfo>
    <tripinfo id="flow04.12" depart="81.00" departLane="s_t_0" departPos="5.10" departSpeed="0.00" departDelay="1.99" arrival="104.00" arrivalLane="t_n_0" arrivalPos="136.25" arrivalSpeed="15.97" duration="23.00" routeLength="294.90" waitingTime="0.00" waitingCount="0" stopTime="0.00" timeLoss="4.58" rerouteNo="0" devices="tripinfo_flow04.12 emissions_flow04.12" vType="CarA" speedFactor="1.17" vaporized="">
        <emissions CO_abs="1302.263337" CO2_abs="92047.003131" HC_abs="7.934981" PMx_abs="1.565305" NOx_abs="36.122550" fuel_abs="29358.791749" electricity_abs="0"/>
    </tripinfo>
    <tripinfo id="flow05.7" depart="78.00" departLane="s_t_0" departPos="5.10" departSpeed="0.00" departDelay="1.88" arrival="106.00" arrivalLane="t_w_0" arrivalPos="136.25" arrivalSpeed="12.33" duration="28.00" routeLength="279.21" waitingTime="0.00" waitingCount="0" stopTime="0.00" timeLoss="6.12" rerouteNo="0" devices="tripinfo_flow05.7 emissions_flow05.7" vType="CarA" speedFactor="0.97" vaporized="">
        <emissions CO_abs="1478.394129" CO2_abs="94184.441302" HC_abs="8.923159" PMx_abs="1.623021" NOx_abs="38.244760" fuel_abs="30040.573307" electricity_abs="0"/>
    </tripinfo>
    <tripinfo id="flow01.6" depart="80.00" departLane="n_t_0" departPos="5.10" departSpeed="0.00" departDelay="1.50" arrival="108.00" arrivalLane="t_s_0" arrivalPos="136.25" arrivalSpeed="11.85" duration="28.00" routeLength="294.90" waitingTime="0.00" waitingCount="0" stopTime="0.00" timeLoss="3.83" rerouteNo="0" devices="tripinfo_flow01.6 emissions_flow01.6" vType="CarA" speedFactor="0.91" vaporized="">
        <emissions CO_abs="1135.889236" CO2_abs="83359.768497" HC_abs="7.051099" PMx_abs="1.239458" NOx_abs="32.338700" fuel_abs="26588.122940" electricity_abs="0"/>
    </tripinfo>
    <tripinfo id="flow01.7" depart="83.00" departLane="n_t_0" departPos="5.10" departSpeed="0.00" departDelay="3.90" arrival="109.00" arrivalLane="t_s_0" arrivalPos="136.25" arrivalSpeed="14.56" duration="26.00" routeLength="294.90" waitingTime="0.00" waitingCount="0" stopTime="0.00" timeLoss="8.06" rerouteNo="0" devices="tripinfo_flow01.7 emissions_flow01.7" vType="CarA" speedFactor="1.19" vaporized="">
        <emissions CO_abs="1422.213182" CO2_abs="97054.626648" HC_abs="8.631429" PMx_abs="1.679621" NOx_abs="39.155991" fuel_abs="30955.973521" electricity_abs="0"/>
    </tripinfo>
    <tripinfo id="flow04.13" depart="84.00" departLane="s_t_0" departPos="5.10" departSpeed="0.00" departDelay="4.83" arrival="113.00" arrivalLane="t_n_0" arrivalPos="136.25" arrivalSpeed="11.06" duration="29.00" routeLength="294.90" waitingTime="0.00" waitingCount="0" stopTime="0.00" timeLoss="4.18" rerouteNo="0" devices="tripinfo_flow04.13 emissions_flow04.13" vType="CarA" speedFactor="0.86" vaporized="">
        <emissions CO_abs="1168.844314" CO2_abs="76618.277922" HC_abs="7.070843" PMx_abs="1.140186" NOx_abs="29.907220" fuel_abs="24437.948818" electricity_abs="0"/>
    </tripinfo>
    <tripinfo id="flow05.8" depart="89.00" departLane="s_t_0" departPos="5.10" departSpeed="0.00" departDelay="2.82" arrival="113.00" arrivalLane="t_w_0" arrivalPos="136.25" arrivalSpeed="16.00" duration="24.00" routeLength="279.21" waitingTime="0.00" waitingCount="0" stopTime="0.00" timeLoss="5.79" rerouteNo="0" devices="tripinfo_flow05.8 emissions_flow05.8" vType="CarA" speedFactor="1.19" vaporized="">
        <emissions CO_abs="1711.850260" CO2_abs="115009.352553" HC_abs="10.498439" PMx_abs="2.164593" NOx_abs="47.526325" fuel_abs="36682.536107" electricity_abs="0"/>
    </tripinfo>
    <tripinfo id="flow04.14" depart="87.00" departLane="s_t_0" departPos="5.10" departSpeed="0.00" departDelay="3.43" arrival="115.00" arrivalLane="t_n_0" arrivalPos="136.25" arrivalSpeed="13.92" duration="28.00" routeLength="294.90" waitingTime="0.00" waitingCount="0" stopTime="0.00" timeLoss="7.72" rerouteNo="0" devices="tripinfo_flow04.14 emissions_flow04.14" vType="CarA" speedFactor="1.08" vaporized="">
        <emissions CO_abs="1304.207166" CO2_abs="84529.665584" HC_abs="7.917530" PMx_abs="1.448437" NOx_abs="34.283150" fuel_abs="26961.132770" electricity_abs="0"/>
    </tripinfo>
    <tripinfo id="flow01.8" depart="88.00" departLane="n_t_0" departPos="5.10" departSpeed="0.00" departDelay="0.20" arrival="115.00" arrivalLane="t_s_0" arrivalPos="136.25" arrivalSpeed="13.13" duration="27.00" routeLength="294.90" waitingTime="0.00" waitingCount="0" stopTime="0.00" timeLoss="3.57" rerouteNo="0" devices="tripinfo_flow01.8 emissions_flow01.8" vType="CarA" speedFactor="0.95" vaporized="">
        <emissions CO_abs="1078.522266" CO2_abs="79619.995554" HC_abs="6.738164" PMx_abs="1.251720" NOx_abs="31.354535" fuel_abs="25395.215991" electricity_abs="0"/>
    </tripinfo>
    <tripinfo id="flow05.9" depart="92.00" departLane="s_t_0" departPos="5.10" departSpeed="0.00" departDelay="1.96" arrival="119.00" arrivalLane="t_w_0" arrivalPos="136.25" arrivalSpeed="13.28" duration="27.00" routeLength="279.21" waitingTime="0.00" waitingCount="0" stopTime="0.00" timeLoss="5.51" rerouteNo="0" devices="tripinfo_flow05.9 emissions_flow05.9" vType="CarA" speedFactor="0.99" vaporized="">
        <emissions CO_abs="1631.827332" CO2_abs="98671.033465" HC_abs="9.724819" PMx_abs="1.798807" NOx_abs="40.686726" fuel_abs="31471.531812" electricity_abs="0"/>
    </tripinfo>
    <tripinfo id="flow04.15" depart="95.00" departLane="s_t_0" departPos="5.10" departSpeed="0.00" departDelay="3.21" arrival="124.00" arrivalLane="t_n_0" arrivalPos="136.25" arrivalSpeed="11.11" duration="29.00" routeLength="294.90" waitingTime="0.00" waitingCount="0" stopTime="0.00" timeLoss="3.79" rerouteNo="0" devices="tripinfo_flow04.15 emissions_flow04.15" vType="CarA" speedFactor="0.87" vaporized="">
        <emissions CO_abs="1072.959807" CO2_abs="77481.615068" HC_abs="6.647632" PMx_abs="1.101780" NOx_abs="29.800411" fuel_abs="24713.318046" electricity_abs="0"/>