<?xml version="1.0" encoding="UTF-8"?>

<!-- generated on 2024-07-08 17:38:40 by Eclipse SUMO libsumo Version 1.20.0
<configuration xmlns:xsi="http://www.w3.org/2001/XMLSchema-instance" xsi:noNamespaceSchemaLocation="http://sumo.dlr.de/xsd/libsumoConfiguration.xsd">

    <input>
        <net-file value="D:\trg1vr\sumo-rl\sumo_rl\nets\2way-single-intersection\2-stage.xml"/>
        <route-files value="autodl-tmp\outputs\2_0.7-0.7-0.7-0.7\output.rou.xml"/>
    </input>

    <output>
        <tripinfo-output value="autodl-tmp\outputs\2_0.7-0.7-0.7-0.7\tripinfos-3.xml"/>
    </output>

    <processing>
        <time-to-teleport value="-1"/>
        <waiting-time-memory value="1000"/>
        <max-depart-delay value="-1"/>
    </processing>

    <emissions>
        <device.emissions.probability value="1.0"/>
    </emissions>

    <random_number>
        <seed value="13"/>
    </random_number>

</configuration>
-->

<tripinfos xmlns:xsi="http://www.w3.org/2001/XMLSchema-instance" xsi:noNamespaceSchemaLocation="http://sumo.dlr.de/xsd/tripinfo_file.xsd">
    <tripinfo id="flow01.0" depart="3.00" departLane="n_t_0" departPos="5.10" departSpeed="0.00" departDelay="0.14" arrival="27.00" arrivalLane="t_s_0" arrivalPos="136.25" arrivalSpeed="14.19" duration="24.00" routeLength="294.90" waitingTime="0.00" waitingCount="0" stopTime="0.00" timeLoss="3.87" rerouteNo="0" devices="tripinfo_flow01.0 emissions_flow01.0" vType="CarA" speedFactor="1.06" vaporized="">
        <emissions CO_abs="1267.619276" CO2_abs="87733.098846" HC_abs="7.796641" PMx_abs="1.548403" NOx_abs="35.524226" fuel_abs="27982.794808" electricity_abs="0"/>
    </tripinfo>
    <tripinfo id="flow04.0" depart="2.00" departLane="s_t_0" departPos="5.10" departSpeed="0.00" departDelay="0.28" arrival="28.00" arrivalLane="t_n_0" arrivalPos="136.25" arrivalSpeed="12.94" duration="26.00" routeLength="294.90" waitingTime="0.00" waitingCount="0" stopTime="0.00" timeLoss="3.98" rerouteNo="0" devices="tripinfo_flow04.0 emissions_flow04.0" vType="CarA" speedFactor="0.97" vaporized="">
        <emissions CO_abs="1165.481663" CO2_abs="87533.608548" HC_abs="7.327431" PMx_abs="1.369614" NOx_abs="34.357046" fuel_abs="27919.306112" electricity_abs="0"/>
    </tripinfo>
    <tripinfo id="flow06.0" depart="5.00" departLane="s_t_0" departPos="5.10" departSpeed="0.00" departDelay="3.08" arrival="29.00" arrivalLane="t_e_0" arrivalPos="136.25" arrivalSpeed="14.87" duration="24.00" routeLength="293.40" waitingTime="0.00" waitingCount="0" stopTime="0.00" timeLoss="5.24" rerouteNo="0" devices="tripinfo_flow06.0 emissions_flow06.0" vType="CarA" speedFactor="1.16" vaporized="">
        <emissions CO_abs="1440.333787" CO2_abs="103401.959960" HC_abs="8.847407" PMx_abs="1.772433" NOx_abs="41.402552" fuel_abs="32980.457493" electricity_abs="0"/>
    </tripinfo>
    <tripinfo id="flow07.0" depart="1.00" departLane="w_t_0" departPos="5.10" departSpeed="0.00" departDelay="0.60" arrival="36.00" arrivalLane="t_e_0" arrivalPos="136.25" arrivalSpeed="14.92" duration="35.00" routeLength="294.90" waitingTime="6.00" waitingCount="1" stopTime="0.00" timeLoss="15.94" rerouteNo="0" devices="tripinfo_flow07.0 emissions_flow07.0" vType="CarA" speedFactor="1.13" vaporized="">
        <emissions CO_abs="3177.704013" CO2_abs="143205.305306" HC_abs="17.635430" PMx_abs="2.755658" NOx_abs="59.789695" fuel_abs="45676.260320" electricity_abs="0"/>
    </tripinfo>
    <tripinfo id="flow10.0" depart="4.00" departLane="e_t_0" departPos="5.10" departSpeed="0.00" departDelay="0.86" arrival="36.00" arrivalLane="t_w_0" arrivalPos="136.25" arrivalSpeed="14.56" duration="32.00" routeLength="294.90" waitingTime="2.00" waitingCount="1" stopTime="0.00" timeLoss="12.31" rerouteNo="0" devices="tripinfo_flow10.0 emissions_flow10.0" vType="CarA" speedFactor="1.13" vaporized="">
        <emissions CO_abs="2603.481159" CO2_abs="133089.306842" HC_abs="14.937742" PMx_abs="2.602675" NOx_abs="55.907698" fuel_abs="42449.430738" electricity_abs="0"/>
    </tripinfo>
    <tripinfo id="flow09.0" depart="4.00" departLane="w_t_0" departPos="5.10" departSpeed="0.00" departDelay="3.53" arrival="37.00" arrivalLane="t_n_0" arrivalPos="136.25" arrivalSpeed="13.01" duration="33.00" routeLength="279.21" waitingTime="2.00" waitingCount="1" stopTime="0.00" timeLoss="10.41" rerouteNo="0" devices="tripinfo_flow09.0 emissions_flow09.0" vType="CarA" speedFactor="0.96" vaporized="">
        <emissions CO_abs="2394.465049" CO2_abs="115116.573556" HC_abs="13.614185" PMx_abs="2.168991" NOx_abs="48.146467" fuel_abs="36717.125629" electricity_abs="0"/>
    </tripinfo>
    <tripinfo id="flow07.1" depart="7.00" departLane="w_t_0" departPos="5.10" departSpeed="0.00" departDelay="0.97" arrival="38.00" arrivalLane="t_e_0" arrivalPos="136.25" arrivalSpeed="14.36" duration="31.00" routeLength="294.90" waitingTime="1.00" waitingCount="1" stopTime="0.00" timeLoss="11.36" rerouteNo="0" devices="tripinfo_flow07.1 emissions_flow07.1" vType="CarA" speedFactor="1.12" vaporized="">
        <emissions CO_abs="2421.672801" CO2_abs="129355.325740" HC_abs="13.859197" PMx_abs="2.380909" NOx_abs="52.831033" fuel_abs="41258.561296" electricity_abs="0"/>
    </tripinfo>
    <tripinfo id="flow10.1" depart="8.00" departLane="e_t_0" departPos="5.10" departSpeed="0.00" departDelay="1.16" arrival="42.00" arrivalLane="t_w_0" arrivalPos="136.25" arrivalSpeed="10.47" duration="34.00" routeLength="294.90" waitingTime="0.00" waitingCount="0" stopTime="0.00" timeLoss="5.72" rerouteNo="0" devices="tripinfo_flow10.1 emissions_flow10.1" vType="CarA" speedFactor="0.77" vaporized="">
        <emissions CO_abs="1564.623340" CO2_abs="89199.782135" HC_abs="9.170564" PMx_abs="1.357785" NOx_abs="35.290827" fuel_abs="28450.984974" electricity_abs="0"/>
    </tripinfo>
    <tripinfo id="flow09.1" depart="10.00" departLane="w_t_0" departPos="5.10" departSpeed="0.00" departDelay="1.08" arrival="42.00" arrivalLane="t_n_0" arrivalPos="136.25" arrivalSpeed="10.98" duration="32.00" routeLength="279.21" waitingTime="0.00" waitingCount="0" stopTime="0.00" timeLoss="5.54" rerouteNo="0" devices="tripinfo_flow09.1 emissions_flow09.1" vType="CarA" speedFactor="0.80" vaporized="">
        <emissions CO_abs="1574.066570" CO2_abs="88159.836066" HC_abs="9.195762" PMx_abs="1.376295" NOx_abs="35.089467" fuel_abs="28119.265196" electricity_abs="0"/>
    </tripinfo>
    <tripinfo id="flow05.0" depart="7.00" departLane="s_t_0" departPos="5.10" departSpeed="0.00" departDelay="3.73" arrival="44.00" arrivalLane="t_w_0" arrivalPos="136.25" arrivalSpeed="15.30" duration="37.00" routeLength="279.21" waitingTime="9.00" waitingCount="1" stopTime="0.00" timeLoss="18.34" rerouteNo="0" devices="tripinfo_flow05.0 emissions_flow05.0" vType="CarA" speedFactor="1.16" vaporized="">
        <emissions CO_abs="4008.185514" CO2_abs="161081.588819" HC_abs="21.987552" PMx_abs="3.326409" NOx_abs="69.026041" fuel_abs="51378.028436" electricity_abs="0"/>
    </tripinfo>
    <tripinfo id="flow12.0" depart="7.00" departLane="e_t_0" departPos="5.10" departSpeed="0.00" departDelay="2.16" arrival="45.00" arrivalLane="t_n_0" arrivalPos="136.25" arrivalSpeed="12.58" duration="38.00" routeLength="293.40" waitingTime="6.00" waitingCount="1" stopTime="0.00" timeLoss="15.14" rerouteNo="0" devices="tripinfo_flow12.0 emissions_flow12.0" vType="CarA" speedFactor="0.97" vaporized="">
        <emissions CO_abs="3060.847840" CO2_abs="126783.148286" HC_abs="16.886093" PMx_abs="2.456046" NOx_abs="53.492271" fuel_abs="40438.435181" electricity_abs="0"/>
    </tripinfo>
    <tripinfo id="flow04.1" depart="10.00" departLane="s_t_0" departPos="5.10" departSpeed="0.00" departDelay="5.39" arrival="47.00" arrivalLane="t_n_0" arrivalPos="136.25" arrivalSpeed="12.35" duration="37.00" routeLength="294.90" waitingTime="5.00" waitingCount="1" stopTime="0.00" timeLoss="14.46" rerouteNo="0" devices="tripinfo_flow04.1 emissions_flow04.1" vType="CarA" speedFactor="0.98" vaporized="">
        <emissions CO_abs="3006.873048" CO2_abs="134232.741153" HC_abs="16.674334" PMx_abs="2.427527" NOx_abs="55.086096" fuel_abs="42814.604687" electricity_abs="0"/>
    </tripinfo>
    <tripinfo id="flow01.1" depart="8.00" departLane="n_t_0" departPos="5.10" departSpeed="0.00" departDelay="0.10" arrival="47.00" arrivalLane="t_s_0" arrivalPos="136.25" arrivalSpeed="15.63" duration="39.00" routeLength="294.90" waitingTime="7.00" waitingCount="1" stopTime="0.00" timeLoss="20.22" rerouteNo="0" devices="tripinfo_flow01.1 emissions_flow01.1" vType="CarA" speedFactor="1.19" vaporized="">
        <emissions CO_abs="3871.727709" CO2_abs="154463.268980" HC_abs="21.299728" PMx_abs="3.161792" NOx_abs="65.972149" fuel_abs="49267.144506" electricity_abs="0"/>
    </tripinfo>
    <tripinfo id="flow05.1" depart="20.00" departLane="s_t_0" departPos="5.10" departSpeed="0.00" departDelay="0.68" arrival="47.00" arrivalLane="t_w_0" arrivalPos="136.25" arrivalSpeed="14.08" duration="27.00" routeLength="279.21" waitingTime="0.00" waitingCount="0" stopTime="0.00" timeLoss="6.45" rerouteNo="0" devices="tripinfo_flow05.1 emissions_flow05.1" vType="CarA" speedFactor="1.05" vaporized="">
        <emissions CO_abs="1553.227817" CO2_abs="99207.181478" HC_abs="9.316054" PMx_abs="1.745370" NOx_abs="40.355641" fuel_abs="31642.551814" electricity_abs="0"/>
    </tripinfo>
    <tripinfo id="flow04.2" depart="17.00" departLane="s_t_0" departPos="5.10" departSpeed="0.00" departDelay="0.14" arrival="48.00" arrivalLane="t_n_0" arrivalPos="136.25" arrivalSpeed="15.04" duration="31.00" routeLength="294.90" waitingTime="0.00" waitingCount="0" stopTime="0.00" timeLoss="12.55" rerouteNo="0" devices="tripinfo_flow04.2 emissions_flow04.2" vType="CarA" speedFactor="1.17" vaporized="">
        <emissions CO_abs="2473.277288" CO2_abs="128464.318256" HC_abs="14.265783" PMx_abs="2.463465" NOx_abs="53.936604" fuel_abs="40974.294122" electricity_abs="0"/>
    </tripinfo>
    <tripinfo id="flow03.0" depart="25.00" departLane="n_t_0" departPos="5.10" departSpeed="0.00" departDelay="0.64" arrival="52.00" arrivalLane="t_e_0" arrivalPos="136.25" arrivalSpeed="12.92" duration="27.00" routeLength="279.21" waitingTime="0.00" waitingCount="0" stopTime="0.00" timeLoss="5.01" rerouteNo="0" devices="tripinfo_flow03.0 emissions_flow03.0" vType="CarA" speedFactor="0.97" vaporized="">
        <emissions CO_abs="1541.218827" CO2_abs="99649.602805" HC_abs="9.286764" PMx_abs="1.723608" NOx_abs="40.343861" fuel_abs="31783.694510" electricity_abs="0"/>
    </tripinfo>
    <tripinfo id="flow06.1" depart="13.00" departLane="s_t_0" departPos="5.10" departSpeed="0.00" departDelay="7.17" arrival="55.00" arrivalLane="t_e_0" arrivalPos="136.25" arrivalSpeed="13.00" duration="42.00" routeLength="293.40" waitingTime="7.00" waitingCount="2" stopTime="0.00" timeLoss="18.94" rerouteNo="0" devices="tripinfo_flow06.1 emissions_flow06.1" vType="CarA" speedFactor="0.98" vaporized="">
        <emissions CO_abs="3486.158901" CO2_abs="136201.419826" HC_abs="18.993868" PMx_abs="2.593357" NOx_abs="57.039524" fuel_abs="43442.645150" electricity_abs="0"/>
    </tripinfo>
    <tripinfo id="flow06.2" depart="15.00" departLane="s_t_0" departPos="5.10" departSpeed="0.00" departDelay="2.18" arrival="57.00" arrivalLane="t_e_0" arrivalPos="136.25" arrivalSpeed="13.03" duration="42.00" routeLength="293.40" waitingTime="4.00" waitingCount="1" stopTime="0.00" timeLoss="18.61" rerouteNo="0" devices="tripinfo_flow06.2 emissions_flow06.2" vType="CarA" speedFactor="0.96" vaporized="">
        <emissions CO_abs="3165.718665" CO2_abs="133257.708610" HC_abs="17.489566" PMx_abs="2.511103" NOx_abs="55.659927" fuel_abs="42503.598298" electricity_abs="0"/>
    </tripinfo>
    <tripinfo id="flow05.2" depart="31.00" departLane="s_t_0" departPos="5.10" departSpeed="0.00" departDelay="0.94" arrival="58.00" arrivalLane="t_w_0" arrivalPos="136.25" arrivalSpeed="12.69" duration="27.00" routeLength="279.21" waitingTime="0.00" waitingCount="0" stopTime="0.00" timeLoss="5.43" rerouteNo="0" devices="tripinfo_flow05.2 emissions_flow05.2" vType="CarA" speedFactor="0.98" vaporized="">
        <emissions CO_abs="1516.684814" CO2_abs="90732.749038" HC_abs="8.916528" PMx_abs="1.607284" NOx_abs="37.015321" fuel_abs="28939.643077" electricity_abs="0"/>
    </tripinfo>
    <tripinfo id="flow06.3" depart="23.00" departLane="s_t_0" departPos="5.10" departSpeed="0.00" departDelay="3.64" arrival="59.00" arrivalLane="t_e_0" arrivalPos="136.25" arrivalSpeed="12.55" duration="36.00" routeLength="293.40" waitingTime="3.00" waitingCount="1" stopTime="0.00" timeLoss="12.41" rerouteNo="0" devices="tripinfo_flow06.3 emissions_flow06.3" vType="CarA" speedFactor="0.93" vaporized="">
        <emissions CO_abs="2475.401907" CO2_abs="113244.353461" HC_abs="13.886483" PMx_abs="2.052878" NOx_abs="46.713626" fuel_abs="36120.143211" electricity_abs="0"/>
    </tripinfo>
    <tripinfo id="flow04.3" depart="34.00" departLane="s_t_0" departPos="5.10" departSpeed="0.00" departDelay="1.67" arrival="59.00" arrivalLane="t_n_0" arrivalPos="136.25" arrivalSpeed="13.18" duration="25.00" routeLength="294.90" waitingTime="0.00" waitingCount="0" stopTime="0.00" timeLoss="3.84" rerouteNo="0" devices="tripinfo_flow04.3 emissions_flow04.3" vType="CarA" speedFactor="1.02" vaporized="">
        <emissions CO_abs="1157.615630" CO2_abs="84062.975090" HC_abs="7.108474" PMx_abs="1.368008" NOx_abs="33.218802" fuel_abs="26812.284360" electricity_abs="0"/>
    </tripinfo>
    <tripinfo id="flow04.4" depart="38.00" departLane="s_t_0" departPos="5.10" departSpeed="0.00" departDelay="0.32" arrival="62.00" arrivalLane="t_n_0" arrivalPos="136.25" arrivalSpeed="15.03" duration="24.00" routeLength="294.90" waitingTime="0.00" waitingCount="0" stopTime="0.00" timeLoss="3.66" rerouteNo="0" devices="tripinfo_flow04.4 emissions_flow04.4" vType="CarA" speedFactor="1.09" vaporized="">
        <emissions CO_abs="1179.743221" CO2_abs="87922.974435" HC_abs="7.339670" PMx_abs="1.499650" NOx_abs="35.003201" fuel_abs="28043.368480" electricity_abs="0"/>
    </tripinfo>
    <tripinfo id="flow02.0" depart="11.00" departLane="n_t_0" departPos="5.10" departSpeed="0.00" departDelay="2.55" arrival="68.00" arrivalLane="t_w_0" arrivalPos="136.25" arrivalSpeed="12.19" duration="57.00" routeLength="293.40" waitingTime="19.00" waitingCount="2" stopTime="0.00" timeLoss="33.67" rerouteNo="0" devices="tripinfo_flow02.0 emissions_flow02.0" vType="CarA" speedFactor="0.95" vaporized="">
        <emissions CO_abs="5836.703914" CO2_abs="174805.988165" HC_abs="30.533436" PMx_abs="3.477670" NOx_abs="73.932052" fuel_abs="55756.623946" electricity_abs="0"/>
    </tripinfo>
    <tripinfo id="flow01.2" depart="41.00" departLane="n_t_0" departPos="5.10" departSpeed="0.00" departDelay="0.84" arrival="68.00" arrivalLane="t_s_0" arrivalPos="136.25" arrivalSpeed="12.05" duration="27.00" routeLength="294.90" waitingTime="0.00" waitingCount="0" stopTime="0.00" timeLoss="3.99" rerouteNo="0" devices="tripinfo_flow01.2 emissions_flow01.2" vType="CarA" speedFactor="0.95" vaporized="">
        <emissions CO_abs="1198.762963" CO2_abs="82379.469184" HC_abs="7.327620" PMx_abs="1.340713" NOx_abs="32.771375" fuel_abs="26275.358961" electricity_abs="0"/>
    </tripinfo>
    <tripinfo id="flow01.3" depart="44.00" departLane="n_t_0" departPos="5.10" departSpeed="0.00" departDelay="2.31" arrival="72.00" arrivalLane="t_s_0" arrivalPos="136.25" arrivalSpeed="12.09" duration="28.00" routeLength="294.90" waitingTime="0.00" waitingCount="0" stopTime="0.00" timeLoss="4.37" rerouteNo="0" devices="tripinfo_flow01.3 emissions_flow01.3" vType="CarA" speedFactor="0.93" vaporized="">
        <emissions CO_abs="1160.989750" CO2_abs="83521.489916" HC_abs="7.079177" PMx_abs="1.230196" NOx_abs="32.074176" fuel_abs="26639.744398" electricity_abs="0"/>
    </tripinfo>
    <tripinfo id="flow06.4" depart="40.00" departLane="s_t_0" departPos="5.10" departSpeed="0.00" departDelay="2.73" arrival="74.00" arrivalLane="t_e_0" arrivalPos="136.25" arrivalSpeed="16.38" duration="34.00" routeLength="293.40" waitingTime="6.00" waitingCount="1" stopTime="0.00" timeLoss="15.16" rerouteNo="0" devices="tripinfo_flow06.4 emissions_flow06.4" vType="CarA" speedFactor="1.19" vaporized="">
        <emissions CO_abs="3419.764260" CO2_abs="154119.155743" HC_abs="19.204946" PMx_abs="3.129185" NOx_abs="65.519440" fuel_abs="49157.131879" electricity_abs="0"/>
    </tripinfo>
    <tripinfo id="flow05.3" depart="43.00" departLane="s_t_0" departPos="5.10" departSpeed="0.00" departDelay="0.15" arrival="74.00" arrivalLane="t_w_0" arrivalPos="136.25" arrivalSpeed="11.62" duration="31.00" routeLength="279.21" waitingTime="0.00" waitingCount="0" stopTime="0.00" timeLoss="5.80" rerouteNo="0" devices="tripinfo_flow05.3 emissions_flow05.3" vType="CarA" speedFactor="0.84" vaporized="">
        <emissions CO_abs="1522.193649" CO2_abs="90314.048688" HC_abs="9.026111" PMx_abs="1.485840" NOx_abs="36.339693" fuel_abs="28806.236331" electricity_abs="0"/>
    </tripinfo>
    <tripinfo id="flow02.1" depart="13.00" departLane="n_t_0" departPos="5.10" departSpeed="0.00" departDelay="1.93" arrival="76.00" arrivalLane="t_w_0" arrivalPos="136.25" arrivalSpeed="14.37" duration="63.00" routeLength="293.40" waitingTime="17.00" waitingCount="1" stopTime="0.00" timeLoss="42.44" rerouteNo="0" devices="tripinfo_flow02.1 emissions_flow02.1" vType="CarA" speedFactor="1.08" vaporized="">
        <emissions CO_abs="6502.785610" CO2_abs="190330.498472" HC_abs="34.092134" PMx_abs="4.001293" NOx_abs="82.474595" fuel_abs="60708.190680" electricity_abs="0"/>
    </tripinfo>
    <tripinfo id="flow11.0" depart="17.00" departLane="e_t_0" departPos="5.10" departSpeed="0.00" departDelay="3.60" arrival="78.00" arrivalLane="t_s_0" arrivalPos="136.25" arrivalSpeed="14.41" duration="61.00" routeLength="279.21" waitingTime="33.00" waitingCount="1" stopTime="0.00" timeLoss="41.71" rerouteNo="0" devices="tripinfo_flow11.0 emissions_flow11.0" vType="CarA" speedFactor="1.09" vaporized="">
        <emissions CO_abs="7544.687945" CO2_abs="206850.021674" HC_abs="39.021288" PMx_abs="4.332345" NOx_abs="88.787628" fuel_abs="65977.619512" electricity_abs="0"/>
    </tripinfo>
    <tripinfo id="flow07.2" depart="20.00" departLane="w_t_0" departPos="5.10" departSpeed="0.00" departDelay="0.23" arrival="78.00" arrivalLane="t_e_0" arrivalPos="136.25" arrivalSpeed="15.60" duration="58.00" routeLength="294.90" waitingTime="30.00" waitingCount="1" stopTime="0.00" timeLoss="40.28" rerouteNo="0" devices="tripinfo_flow07.2 emissions_flow07.2" vType="CarA" speedFactor="1.20" vaporized="">
        <emissions CO_abs="7173.209420" CO2_abs="205754.911043" HC_abs="37.423252" PMx_abs="4.454192" NOx_abs="89.276919" fuel_abs="65627.949012" electricity_abs="0"/>
    </tripinfo>
    <tripinfo id="flow09.2" depart="25.00" departLane="w_t_0" departPos="5.10" departSpeed="0.00" departDelay="3.34" arrival="79.00" arrivalLane="t_n_0" arrivalPos="136.25" arrivalSpeed="13.24" duration="54.00" routeLength="279.21" waitingTime="24.00" waitingCount="1" stopTime="0.00" timeLoss="33.08" rerouteNo="0" devices="tripinfo_flow09.2 emissions_flow09.2" vType="CarA" speedFactor="1.03" vaporized="">
        <emissions CO_abs="5945.794036" CO2_abs="177362.116755" HC_abs="31.220295" PMx_abs="3.693814" NOx_abs="76.285259" fuel_abs="56571.759416" electricity_abs="0"/>
    </tripinfo>
    <tripinfo id="flow11.1" depart="30.00" departLane="e_t_0" departPos="5.10" departSpeed="0.00" departDelay="2.92" arrival="80.00" arrivalLane="t_s_0" arrivalPos="136.25" arrivalSpeed="16.19" duration="50.00" routeLength="279.21" waitingTime="20.00" waitingCount="1" stopTime="0.00" timeLoss="31.59" rerouteNo="0" devices="tripinfo_flow11.1 emissions_flow11.1" vType="CarA" speedFactor="1.17" vaporized="">
        <emissions CO_abs="5890.321586" CO2_abs="185893.780408" HC_abs="31.180624" PMx_abs="3.957438" NOx_abs="80.501364" fuel_abs="59292.717280" electricity_abs="0"/>
    </tripinfo>
    <tripinfo id="flow10.2" depart="11.00" departLane="e_t_0" departPos="5.10" departSpeed="0.00" departDelay="3.03" arrival="82.00" arrivalLane="t_w_0" arrivalPos="136.25" arrivalSpeed="10.70" duration="71.00" routeLength="294.90" waitingTime="36.00" waitingCount="1" stopTime="0.00" timeLoss="45.34" rerouteNo="0" devices="tripinfo_flow10.2 emissions_flow10.2" vType="CarA" speedFactor="0.83" vaporized="">
        <emissions CO_abs="7968.078334" CO2_abs="200093.193126" HC_abs="40.950492" PMx_abs="4.208635" NOx_abs="86.595641" fuel_abs="63822.847085" electricity_abs="0"/>
    </tripinfo>
    <tripinfo id="flow07.3" depart="22.00" departLane="w_t_0" departPos="5.10" departSpeed="0.00" departDelay="2.15" arrival="82.00" arrivalLane="t_e_0" arrivalPos="136.25" arrivalSpeed="14.30" duration="60.00" routeLength="294.90" waitingTime="29.00" waitingCount="1" stopTime="0.00" timeLoss="38.97" rerouteNo="0" devices="tripinfo_flow07.3 emissions_flow07.3" vType="CarA" speedFactor="1.06" vaporized="">
        <emissions CO_abs="7059.002904" CO2_abs="201223.323381" HC_abs="36.789560" PMx_abs="4.217554" NOx_abs="86.610111" fuel_abs="64182.740898" electricity_abs="0"/>
    </tripinfo>
    <tripinfo id="flow09.3" depart="41.00" departLane="w_t_0" departPos="5.10" departSpeed="0.00" departDelay="1.94" arrival="82.00" arrivalLane="t_n_0" arrivalPos="136.25" arrivalSpeed="11.02" duration="41.00" routeLength="279.21" waitingTime="8.00" waitingCount="1" stopTime="0.00" timeLoss="17.42" rerouteNo="0" devices="tripinfo_flow09.3 emissions_flow09.3" vType="CarA" speedFactor="0.89" vaporized="">
        <emissions CO_abs="3345.169634" CO2_abs="124236.485073" HC_abs="18.134676" PMx_abs="2.344613" NOx_abs="52.035808" fuel_abs="39626.451404" electricity_abs="0"/>
    </tripinfo>
    <tripinfo id="flow10.3" depart="14.00" departLane="e_t_0" departPos="5.10" departSpeed="0.00" departDelay="2.30" arrival="84.00" arrivalLane="t_w_0" arrivalPos="136.25" arrivalSpeed="12.39" duration="70.00" routeLength="294.90" waitingTime="34.00" waitingCount="1" stopTime="0.00" timeLoss="47.44" rerouteNo="0" devices="tripinfo_flow10.3 emissions_flow10.3" vType="CarA" speedFactor="0.97" vaporized="">
        <emissions CO_abs="8056.378498" CO2_abs="209138.105906" HC_abs="41.593244" PMx_abs="4.449675" NOx_abs="90.858250" fuel_abs="66707.628990" electricity_abs="0"/>
    </tripinfo>
    <tripinfo id="flow03.1" depart="56.00" departLane="n_t_0" departPos="5.10" departSpeed="0.00" departDelay="2.60" arrival="87.00" arrivalLane="t_e_0" arrivalPos="136.25" arrivalSpeed="14.11" duration="31.00" routeLength="279.21" waitingTime="2.00" waitingCount="1" stopTime="0.00" timeLoss="11.07" rerouteNo="0" devices="tripinfo_flow03.1 emissions_flow03.1" vType="CarA" speedFactor="1.05" vaporized="">
        <emissions CO_abs="2431.900908" CO2_abs="119298.011836" HC_abs="13.743329" PMx_abs="2.226556" NOx_abs="49.561494" fuel_abs="38050.808159" electricity_abs="0"/>
    </tripinfo>
    <tripinfo id="flow08.0" depart="30.00" departLane="w_t_0" departPos="5.10" departSpeed="0.00" departDelay="0.86" arrival="88.00" arrivalLane="t_s_0" arrivalPos="136.25" arrivalSpeed="12.34" duration="58.00" routeLength="293.40" waitingTime="21.00" waitingCount="2" stopTime="0.00" timeLoss="33.78" rerouteNo="0" devices="tripinfo_flow08.0 emissions_flow08.0" vType="CarA" speedFactor="0.90" vaporized="">
        <emissions CO_abs="6090.458097" CO2_abs="177369.518413" HC_abs="31.821261" PMx_abs="3.597466" NOx_abs="75.728445" fuel_abs="56574.319716" electricity_abs="0"/>
    </tripinfo>
    <tripinfo id="flow03.2" depart="61.00" departLane="n_t_0" departPos="5.10" departSpeed="0.00" departDelay="0.47" arrival="90.00" arrivalLane="t_e_0" arrivalPos="136.25" arrivalSpeed="12.49" duration="29.00" routeLength="279.21" waitingTime="0.00" waitingCount="0" stopTime="0.00" timeLoss="6.98" rerouteNo="0" devices="tripinfo_flow03.2 emissions_flow03.2" vType="CarA" speedFactor="0.95" vaporized="">
        <emissions CO_abs="1619.912175" CO2_abs="97886.576299" HC_abs="9.541194" PMx_abs="1.647158" NOx_abs="39.289762" fuel_abs="31221.490310" electricity_abs="0"/>
    </tripinfo>
    <tripinfo id="flow02.2" depart="28.00" departLane="n_t_0" departPos="5.10" departSpeed="0.00" departDelay="0.21" arrival="93.00" arrivalLane="t_w_0" arrivalPos="136.25" arrivalSpeed="11.24" duration="65.00" routeLength="293.40" waitingTime="23.00" waitingCount="2" stopTime="0.00" timeLoss="38.92" rerouteNo="0" devices="tripinfo_flow02.2 emissions_flow02.2" vType="CarA" speedFactor="0.85" vaporized="">
        <emissions CO_abs="6764.145086" CO2_abs="185105.036026" HC_abs="35.116648" PMx_abs="3.768412" NOx_abs="79.290803" fuel_abs="59041.901645" electricity_abs="0"/>
    </tripinfo>
    <tripinfo id="flow04.5" depart="69.00" departLane="s_t_0" departPos="5.10" departSpeed="0.00" departDelay="0.27" arrival="93.00" arrivalLane="t_n_0" arrivalPos="136.25" arrivalSpeed="14.92" duration="24.00" routeLength="294.90" waitingTime="0.00" waitingCount="0" stopTime="0.00" timeLoss="4.49" rerouteNo="0" devices="tripinfo_flow04.5 emissions_flow04.5" vType="CarA" speedFactor="1.09" vaporized="">
        <emissions CO_abs="1214.297277" CO2_abs="91173.169719" HC_abs="7.542013" PMx_abs="1.467352" NOx_abs="35.618960" fuel_abs="29080.121526" electricity_abs="0"/>
    </tripinfo>
    <tripinfo id="flow04.6" depart="72.00" departLane="s_t_0" departPos="5.10" departSpeed="0.00" departDelay="2.76" arrival="98.00" arrivalLane="t_n_0" arrivalPos="136.25" arrivalSpeed="13.00" duration="26.00" routeLength="294.90" waitingTime="0.00" waitingCount="0" stopTime="0.00" timeLoss="3.49" rerouteNo="0" devices="tripinfo_flow04.6 emissions_flow04.6" vType="CarA" speedFactor="0.96" vaporized="">
        <emissions CO_abs="1122.694138" CO2_abs="83487.803305" HC_abs="6.986147" PMx_abs="1.315076" NOx_abs="32.742000" fuel_abs="26628.870886" electricity_abs="0"/>
    </tripinfo>
    <tripinfo id="flow02.3" depart="54.00" departLane="n_t_0" departPos="5.10" departSpeed="0.00" departDelay="0.39" arrival="102.00" arrivalLane="t_w_0" arrivalPos="136.25" arrivalSpeed="13.81" duration="48.00" routeLength="293.40" waitingTime="11.00" waitingCount="2" stopTime="0.00" timeLoss="27.30" rerouteNo="0" devices="tripinfo_flow02.3 emissions_flow02.3" vType="CarA" speedFactor="1.07" vaporized="">
        <emissions CO_abs="4869.584456" CO2_abs="164617.859485" HC_abs="25.956124" PMx_abs="3.323546" NOx_abs="70.143641" fuel_abs="52506.512925" electricity_abs="0"/>
    </tripinfo>
    <tripinfo id="flow03.3" depart="72.00" departLane="n_t_0" departPos="5.10" departSpeed="0.00" departDelay="0.03" arrival="102.00" arrivalLane="t_e_0" arrivalPos="136.25" arrivalSpeed="10.77" duration="30.00" routeLength="279.21" waitingTime="0.00" waitingCount="0" stopTime="0.00" timeLoss="5.37" rerouteNo="0" devices="tripinfo_flow03.3 emissions_flow03.3" vType="CarA" speedFactor="0.86" vaporized="">
        <emissions CO_abs="1378.266476" CO2_abs="87299.872884" HC_abs="8.261542" PMx_abs="1.311794" NOx_abs="34.234188" fuel_abs="27844.932737" electricity_abs="0"/>
    </tripinfo>
    <tripinfo id="flow01.4" depart="77.00" departLane="n_t_0" departPos="5.10" departSpeed="0.00" departDelay="1.90" arrival="102.00" arrivalLane="t_s_0" arrivalPos="136.25" arrivalSpeed="14.07" duration="25.00" routeLength="294.90" waitingTime="0.00" waitingCount="0" stopTime="0.00" timeLoss="4.60" rerouteNo="0" devices="tripinfo_flow01.4 emissions_flow01.4" vType="CarA" speedFactor="1.07" vaporized="">
        <emissions CO_abs="1216.627104" CO2_abs="85837.968085" HC_abs="7.381717" PMx_abs="1.392050" NOx_abs="33.692561" fuel_abs="27378.461312" electricity_abs="0"/>
    </tripinfo>
    <tripinfo id="flow02.4" depart="64.00" departLane="n_t_0" departPos="5.10" departSpeed="0.00" departDelay="1.59" arrival="104.00" arrivalLane="t_w_0" arrivalPos="136.25" arrivalSpeed="13.89" duration="40.00" routeLength="293.40" waitingTime="4.00" waitingCount="1" stopTime="0.00" timeLoss="18.37" rerouteNo="0" devices="tripinfo_flow02.4 emissions_flow02.4" vType="CarA" speedFactor="1.01" vaporized="">
        <emissions CO_abs="3167.999797" CO2_abs="129978.792947" HC_abs="17.410077" PMx_abs="2.516370" NOx_abs="54.703987" fuel_abs="41457.732659" electricity_abs="0"/>
    </tripinfo>
    <tripinfo id="flow02.5" depart="75.00" departLane="n_t_0" departPos="5.10" departSpeed="0.00" departDelay="1.23" arrival="107.00" arrivalLane="t_w_0" arrivalPos="136.25" arrivalSpeed="12.16" duration="32.00" routeLength="293.40" waitingTime="0.00" waitingCount="0" stopTime="0.00" timeLoss="9.14" rerouteNo="0" devices="tripinfo_flow02.5 emissions_flow02.5" vType="CarA" speedFactor="0.97" vaporized="">
        <emissions CO_abs="1922.610070" CO2_abs="110114.004321" HC_abs="11.213520" PMx_abs="1.929485" NOx_abs="44.952359" fuel_abs="35121.456813" electricity_abs="0"/>
    </tripinfo>
    <tripinfo id="flow06.5" depart="46.00" departLane="s_t_0" departPos="5.10" departSpeed="0.00" departDelay="2.43" arrival="108.00" arrivalLane="t_e_0" arrivalPos="136.25" arrivalSpeed="13.25" duration="62.00" routeLength="293.40" waitingTime="29.00" waitingCount="2" stopTime="0.00" timeLoss="39.99" rerouteNo="0" devices="tripinfo_flow06.5 emissions_flow06.5" vType="CarA" speedFactor="1.01" vaporized="">
        <emissions CO_abs="6925.144061" CO2_abs="193170.242713" HC_abs="35.944199" PMx_abs="4.026063" NOx_abs="82.901890" fuel_abs="61614.230163" electricity_abs="0"/>
    </tripinfo>
    <tripinfo id="flow06.6" depart="48.00" departLane="s_t_0" departPos="5.10" departSpeed="0.00" departDelay="0.39" arrival="110.00" arrivalLane="t_e_0" arrivalPos="136.25" arrivalSpeed="13.55" duration="62.00" routeLength="293.40" waitingTime="25.00" waitingCount="2" stopTime="0.00" timeLoss="41.12" rerouteNo="0" devices="tripinfo_flow06.6 emissions_flow06.6" vType="CarA" speedFactor="1.04" vaporized="">