<?xml version="1.0" encoding="UTF-8"?>

<!-- generated on 2024-07-08 17:38:54 by Eclipse SUMO libsumo Version 1.20.0
<configuration xmlns:xsi="http://www.w3.org/2001/XMLSchema-instance" xsi:noNamespaceSchemaLocation="http://sumo.dlr.de/xsd/libsumoConfiguration.xsd">

    <input>
        <net-file value="D:\trg1vr\sumo-rl\sumo_rl\nets\2way-single-intersection\2-stage.xml"/>
        <route-files value="autodl-tmp\outputs\2_0.7-0.7-0.7-0.7\output.rou.xml"/>
    </input>

    <output>
        <tripinfo-output value="autodl-tmp\outputs\2_0.7-0.7-0.7-0.7\tripinfos-6.xml"/>
    </output>

    <processing>
        <time-to-teleport value="-1"/>
        <waiting-time-memory value="1000"/>
        <max-depart-delay value="-1"/>
    </processing>

    <emissions>
        <device.emissions.probability value="1.0"/>
    </emissions>

    <random_number>
        <seed value="16"/>
    </random_number>

</configuration>
-->

<tripinfos xmlns:xsi="http://www.w3.org/2001/XMLSchema-instance" xsi:noNamespaceSchemaLocation="http://sumo.dlr.de/xsd/tripinfo_file.xsd">
    <tripinfo id="flow10.0" depart="4.00" departLane="e_t_0" departPos="5.10" departSpeed="0.00" departDelay="0.02" arrival="32.00" arrivalLane="t_w_0" arrivalPos="136.25" arrivalSpeed="12.08" duration="28.00" routeLength="294.90" waitingTime="0.00" waitingCount="0" stopTime="0.00" timeLoss="3.72" rerouteNo="0" devices="tripinfo_flow10.0 emissions_flow10.0" vType="CarA" speedFactor="0.89" vaporized="">
        <emissions CO_abs="1203.310334" CO2_abs="82157.077051" HC_abs="7.362120" PMx_abs="1.300907" NOx_abs="32.523234" fuel_abs="26204.470725" electricity_abs="0"/>
    </tripinfo>
    <tripinfo id="flow10.1" depart="9.00" departLane="e_t_0" departPos="5.10" departSpeed="0.00" departDelay="0.78" arrival="35.00" arrivalLane="t_w_0" arrivalPos="136.25" arrivalSpeed="13.71" duration="26.00" routeLength="294.90" waitingTime="0.00" waitingCount="0" stopTime="0.00" timeLoss="4.00" rerouteNo="0" devices="tripinfo_flow10.1 emissions_flow10.1" vType="CarA" speedFactor="1.00" vaporized="">
        <emissions CO_abs="1126.694515" CO2_abs="86583.587888" HC_abs="6.991962" PMx_abs="1.334571" NOx_abs="33.724038" fuel_abs="27616.288785" electricity_abs="0"/>
    </tripinfo>
    <tripinfo id="flow10.2" depart="14.00" departLane="e_t_0" departPos="5.10" departSpeed="0.00" departDelay="0.95" arrival="38.00" arrivalLane="t_w_0" arrivalPos="136.25" arrivalSpeed="14.88" duration="24.00" routeLength="294.90" waitingTime="0.00" waitingCount="0" stopTime="0.00" timeLoss="4.67" rerouteNo="0" devices="tripinfo_flow10.2 emissions_flow10.2" vType="CarA" speedFactor="1.13" vaporized="">
        <emissions CO_abs="1325.568058" CO2_abs="90225.532766" HC_abs="8.079068" PMx_abs="1.588550" NOx_abs="36.292870" fuel_abs="28777.791920" electricity_abs="0"/>
    </tripinfo>
    <tripinfo id="flow10.3" depart="17.00" departLane="e_t_0" departPos="5.10" departSpeed="0.00" departDelay="2.03" arrival="43.00" arrivalLane="t_w_0" arrivalPos="136.25" arrivalSpeed="12.70" duration="26.00" routeLength="294.90" waitingTime="0.00" waitingCount="0" stopTime="0.00" timeLoss="3.93" rerouteNo="0" devices="tripinfo_flow10.3 emissions_flow10.3" vType="CarA" speedFactor="0.99" vaporized="">
        <emissions CO_abs="1188.814204" CO2_abs="83320.296958" HC_abs="7.261416" PMx_abs="1.362831" NOx_abs="33.027160" fuel_abs="26575.424112" electricity_abs="0"/>
    </tripinfo>
    <tripinfo id="flow10.4" depart="20.00" departLane="e_t_0" departPos="5.10" departSpeed="0.00" departDelay="4.34" arrival="45.00" arrivalLane="t_w_0" arrivalPos="136.25" arrivalSpeed="14.22" duration="25.00" routeLength="294.90" waitingTime="0.00" waitingCount="0" stopTime="0.00" timeLoss="3.72" rerouteNo="0" devices="tripinfo_flow10.4 emissions_flow10.4" vType="CarA" speedFactor="1.04" vaporized="">
        <emissions CO_abs="1237.039781" CO2_abs="88298.603286" HC_abs="7.630716" PMx_abs="1.512530" NOx_abs="35.438467" fuel_abs="28163.186693" electricity_abs="0"/>
    </tripinfo>
    <tripinfo id="flow09.0" depart="18.00" departLane="w_t_0" departPos="5.10" departSpeed="0.00" departDelay="0.72" arrival="46.00" arrivalLane="t_n_0" arrivalPos="136.25" arrivalSpeed="12.73" duration="28.00" routeLength="279.21" waitingTime="0.00" waitingCount="0" stopTime="0.00" timeLoss="5.56" rerouteNo="0" devices="tripinfo_flow09.0 emissions_flow09.0" vType="CarA" speedFactor="0.93" vaporized="">
        <emissions CO_abs="1523.524473" CO2_abs="96464.582406" HC_abs="9.193330" PMx_abs="1.646794" NOx_abs="39.083465" fuel_abs="30767.859734" electricity_abs="0"/>
    </tripinfo>
    <tripinfo id="flow10.5" depart="22.00" departLane="e_t_0" departPos="5.10" departSpeed="0.00" departDelay="2.05" arrival="51.00" arrivalLane="t_w_0" arrivalPos="136.25" arrivalSpeed="12.01" duration="29.00" routeLength="294.90" waitingTime="0.00" waitingCount="0" stopTime="0.00" timeLoss="4.28" rerouteNo="0" devices="tripinfo_flow10.5 emissions_flow10.5" vType="CarA" speedFactor="0.87" vaporized="">
        <emissions CO_abs="1240.151112" CO2_abs="82688.425429" HC_abs="7.504447" PMx_abs="1.259308" NOx_abs="32.358258" fuel_abs="26374.030769" electricity_abs="0"/>
    </tripinfo>
    <tripinfo id="flow10.6" depart="25.00" departLane="e_t_0" departPos="5.10" departSpeed="0.00" departDelay="1.36" arrival="53.00" arrivalLane="t_w_0" arrivalPos="136.25" arrivalSpeed="14.49" duration="28.00" routeLength="294.90" waitingTime="0.00" waitingCount="0" stopTime="0.00" timeLoss="8.77" rerouteNo="0" devices="tripinfo_flow10.6 emissions_flow10.6" vType="CarA" speedFactor="1.14" vaporized="">
        <emissions CO_abs="1492.482701" CO2_abs="93342.033866" HC_abs="8.924124" PMx_abs="1.643427" NOx_abs="38.091738" fuel_abs="29771.854213" electricity_abs="0"/>
    </tripinfo>
    <tripinfo id="flow11.0" depart="28.00" departLane="e_t_0" departPos="5.10" departSpeed="0.00" departDelay="2.57" arrival="54.00" arrivalLane="t_s_0" arrivalPos="136.25" arrivalSpeed="13.01" duration="26.00" routeLength="279.21" waitingTime="0.00" waitingCount="0" stopTime="0.00" timeLoss="4.97" rerouteNo="0" devices="tripinfo_flow11.0 emissions_flow11.0" vType="CarA" speedFactor="0.99" vaporized="">
        <emissions CO_abs="1344.553178" CO2_abs="92458.278320" HC_abs="8.167534" PMx_abs="1.583202" NOx_abs="37.326092" fuel_abs="29489.945511" electricity_abs="0"/>
    </tripinfo>
    <tripinfo id="flow11.1" depart="31.00" departLane="e_t_0" departPos="5.10" departSpeed="0.00" departDelay="0.17" arrival="60.00" arrivalLane="t_s_0" arrivalPos="136.25" arrivalSpeed="12.29" duration="29.00" routeLength="279.21" waitingTime="0.00" waitingCount="0" stopTime="0.00" timeLoss="5.52" rerouteNo="0" devices="tripinfo_flow11.1 emissions_flow11.1" vType="CarA" speedFactor="0.91" vaporized="">
        <emissions CO_abs="1527.108783" CO2_abs="96393.915872" HC_abs="9.163227" PMx_abs="1.576538" NOx_abs="38.586278" fuel_abs="30745.402551" electricity_abs="0"/>
    </tripinfo>
    <tripinfo id="flow07.0" depart="36.00" departLane="w_t_0" departPos="5.10" departSpeed="0.00" departDelay="0.91" arrival="60.00" arrivalLane="t_e_0" arrivalPos="136.25" arrivalSpeed="14.62" duration="24.00" routeLength="294.90" waitingTime="0.00" waitingCount="0" stopTime="0.00" timeLoss="3.69" rerouteNo="0" devices="tripinfo_flow07.0 emissions_flow07.0" vType="CarA" speedFactor="1.06" vaporized="">
        <emissions CO_abs="1207.329171" CO2_abs="87973.647213" HC_abs="7.492977" PMx_abs="1.502571" NOx_abs="35.176635" fuel_abs="28059.534693" electricity_abs="0"/>
    </tripinfo>
    <tripinfo id="flow08.0" depart="34.00" departLane="w_t_0" departPos="5.10" departSpeed="0.00" departDelay="0.58" arrival="62.00" arrivalLane="t_s_0" arrivalPos="136.25" arrivalSpeed="12.38" duration="28.00" routeLength="293.40" waitingTime="0.00" waitingCount="0" stopTime="0.00" timeLoss="4.60" rerouteNo="0" devices="tripinfo_flow08.0 emissions_flow08.0" vType="CarA" speedFactor="0.95" vaporized="">
        <emissions CO_abs="1370.857105" CO2_abs="93509.929975" HC_abs="8.332960" PMx_abs="1.510556" NOx_abs="37.157216" fuel_abs="29825.491529" electricity_abs="0"/>
    </tripinfo>
    <tripinfo id="flow12.0" depart="34.00" departLane="e_t_0" departPos="5.10" departSpeed="0.00" departDelay="2.28" arrival="66.00" arrivalLane="t_n_0" arrivalPos="136.25" arrivalSpeed="14.50" duration="32.00" routeLength="293.40" waitingTime="2.00" waitingCount="1" stopTime="0.00" timeLoss="10.55" rerouteNo="0" devices="tripinfo_flow12.0 emissions_flow12.0" vType="CarA" speedFactor="1.05" vaporized="">
        <emissions CO_abs="2577.399585" CO2_abs="126977.873533" HC_abs="14.697604" PMx_abs="2.467530" NOx_abs="53.400133" fuel_abs="40500.240435" electricity_abs="0"/>
    </tripinfo>
    <tripinfo id="flow07.1" depart="44.00" departLane="w_t_0" departPos="5.10" departSpeed="0.00" departDelay="0.19" arrival="68.00" arrivalLane="t_e_0" arrivalPos="136.25" arrivalSpeed="15.98" duration="24.00" routeLength="294.90" waitingTime="0.00" waitingCount="0" stopTime="0.00" timeLoss="5.12" rerouteNo="0" devices="tripinfo_flow07.1 emissions_flow07.1" vType="CarA" speedFactor="1.18" vaporized="">
        <emissions CO_abs="1656.055667" CO2_abs="109191.077901" HC_abs="10.093509" PMx_abs="2.073200" NOx_abs="45.046624" fuel_abs="34826.785307" electricity_abs="0"/>
    </tripinfo>
    <tripinfo id="flow10.7" depart="45.00" departLane="e_t_0" departPos="5.10" departSpeed="0.00" departDelay="0.42" arrival="69.00" arrivalLane="t_w_0" arrivalPos="136.25" arrivalSpeed="14.33" duration="24.00" routeLength="294.90" waitingTime="0.00" waitingCount="0" stopTime="0.00" timeLoss="4.36" rerouteNo="0" devices="tripinfo_flow10.7 emissions_flow10.7" vType="CarA" speedFactor="1.12" vaporized="">
        <emissions CO_abs="1295.847536" CO2_abs="86478.148583" HC_abs="7.807593" PMx_abs="1.535359" NOx_abs="34.880827" fuel_abs="27582.540523" electricity_abs="0"/>
    </tripinfo>
    <tripinfo id="flow07.2" depart="48.00" departLane="w_t_0" departPos="5.10" departSpeed="0.00" departDelay="0.25" arrival="75.00" arrivalLane="t_e_0" arrivalPos="136.25" arrivalSpeed="12.96" duration="27.00" routeLength="294.90" waitingTime="0.00" waitingCount="0" stopTime="0.00" timeLoss="4.50" rerouteNo="0" devices="tripinfo_flow07.2 emissions_flow07.2" vType="CarA" speedFactor="0.98" vaporized="">
        <emissions CO_abs="1324.263951" CO2_abs="90006.571133" HC_abs="8.015151" PMx_abs="1.469933" NOx_abs="35.643131" fuel_abs="28708.071045" electricity_abs="0"/>
    </tripinfo>
    <tripinfo id="flow11.2" depart="52.00" departLane="e_t_0" departPos="5.10" departSpeed="0.00" departDelay="0.39" arrival="79.00" arrivalLane="t_s_0" arrivalPos="136.25" arrivalSpeed="13.12" duration="27.00" routeLength="279.21" waitingTime="0.00" waitingCount="0" stopTime="0.00" timeLoss="5.22" rerouteNo="0" devices="tripinfo_flow11.2 emissions_flow11.2" vType="CarA" speedFactor="0.98" vaporized="">
        <emissions CO_abs="1450.691884" CO2_abs="98444.646362" HC_abs="8.765055" PMx_abs="1.642179" NOx_abs="39.281887" fuel_abs="31399.394394" electricity_abs="0"/>
    </tripinfo>
    <tripinfo id="flow09.1" depart="51.00" departLane="w_t_0" departPos="5.10" departSpeed="0.00" departDelay="3.79" arrival="80.00" arrivalLane="t_n_0" arrivalPos="136.25" arrivalSpeed="12.51" duration="29.00" routeLength="279.21" waitingTime="0.00" waitingCount="0" stopTime="0.00" timeLoss="5.93" rerouteNo="0" devices="tripinfo_flow09.1 emissions_flow09.1" vType="CarA" speedFactor="0.94" vaporized="">
        <emissions CO_abs="1672.559638" CO2_abs="95310.121497" HC_abs="9.814157" PMx_abs="1.701018" NOx_abs="39.152155" fuel_abs="30399.651464" electricity_abs="0"/>
    </tripinfo>
    <tripinfo id="flow09.2" depart="55.00" departLane="w_t_0" departPos="5.10" departSpeed="0.00" departDelay="6.33" arrival="81.00" arrivalLane="t_n_0" arrivalPos="136.25" arrivalSpeed="14.12" duration="26.00" routeLength="279.21" waitingTime="0.00" waitingCount="0" stopTime="0.00" timeLoss="6.98" rerouteNo="0" devices="tripinfo_flow09.2 emissions_flow09.2" vType="CarA" speedFactor="1.09" vaporized="">
        <emissions CO_abs="1697.267042" CO2_abs="106155.153819" HC_abs="10.205464" PMx_abs="1.933195" NOx_abs="43.705477" fuel_abs="33858.594297" electricity_abs="0"/>
    </tripinfo>
    <tripinfo id="flow12.1" depart="38.00" departLane="e_t_0" departPos="5.10" departSpeed="0.00" departDelay="0.50" arrival="85.00" arrivalLane="t_n_0" arrivalPos="136.25" arrivalSpeed="13.72" duration="47.00" routeLength="293.40" waitingTime="12.00" waitingCount="1" stopTime="0.00" timeLoss="25.43" rerouteNo="0" devices="tripinfo_flow12.1 emissions_flow12.1" vType="CarA" speedFactor="1.03" vaporized="">
        <emissions CO_abs="4582.596039" CO2_abs="157173.202412" HC_abs="24.461843" PMx_abs="3.142050" NOx_abs="66.540016" fuel_abs="50131.976784" electricity_abs="0"/>
    </tripinfo>
    <tripinfo id="flow08.1" depart="58.00" departLane="w_t_0" departPos="5.10" departSpeed="0.00" departDelay="7.33" arrival="85.00" arrivalLane="t_s_0" arrivalPos="136.25" arrivalSpeed="12.34" duration="27.00" routeLength="293.40" waitingTime="0.00" waitingCount="0" stopTime="0.00" timeLoss="4.25" rerouteNo="0" devices="tripinfo_flow08.1 emissions_flow08.1" vType="CarA" speedFactor="0.97" vaporized="">
        <emissions CO_abs="1288.784280" CO2_abs="88086.783581" HC_abs="7.800791" PMx_abs="1.447265" NOx_abs="35.076068" fuel_abs="28095.718228" electricity_abs="0"/>
    </tripinfo>
    <tripinfo id="flow03.0" depart="11.00" departLane="n_t_0" departPos="5.10" departSpeed="0.00" departDelay="0.02" arrival="89.00" arrivalLane="t_e_0" arrivalPos="136.25" arrivalSpeed="14.09" duration="78.00" routeLength="279.21" waitingTime="47.00" waitingCount="1" stopTime="0.00" timeLoss="57.44" rerouteNo="0" devices="tripinfo_flow03.0 emissions_flow03.0" vType="CarA" speedFactor="1.05" vaporized="">
        <emissions CO_abs="10124.832186" CO2_abs="245429.645202" HC_abs="51.693991" PMx_abs="5.346194" NOx_abs="106.767044" fuel_abs="78283.633091" electricity_abs="0"/>
    </tripinfo>
    <tripinfo id="flow04.0" depart="33.00" departLane="s_t_0" departPos="5.10" departSpeed="0.00" departDelay="0.18" arrival="89.00" arrivalLane="t_n_0" arrivalPos="136.25" arrivalSpeed="12.89" duration="56.00" routeLength="294.90" waitingTime="24.00" waitingCount="1" stopTime="0.00" timeLoss="34.57" rerouteNo="0" devices="tripinfo_flow04.0 emissions_flow04.0" vType="CarA" speedFactor="0.99" vaporized="">
        <emissions CO_abs="6165.286744" CO2_abs="178062.803686" HC_abs="32.226039" PMx_abs="3.702386" NOx_abs="76.555452" fuel_abs="56795.381299" electricity_abs="0"/>
    </tripinfo>
    <tripinfo id="flow05.0" depart="11.00" departLane="s_t_0" departPos="5.10" departSpeed="0.00" departDelay="0.89" arrival="90.00" arrivalLane="t_w_0" arrivalPos="136.25" arrivalSpeed="12.37" duration="79.00" routeLength="279.21" waitingTime="46.00" waitingCount="1" stopTime="0.00" timeLoss="55.42" rerouteNo="0" devices="tripinfo_flow05.0 emissions_flow05.0" vType="CarA" speedFactor="0.91" vaporized="">
        <emissions CO_abs="9554.385739" CO2_abs="227986.084033" HC_abs="48.795311" PMx_abs="4.814302" NOx_abs="98.568850" fuel_abs="72720.011379" electricity_abs="0"/>
    </tripinfo>
    <tripinfo id="flow01.0" depart="18.00" departLane="n_t_0" departPos="5.10" departSpeed="0.00" departDelay="0.96" arrival="90.00" arrivalLane="t_s_0" arrivalPos="136.25" arrivalSpeed="13.88" duration="72.00" routeLength="294.90" waitingTime="40.00" waitingCount="1" stopTime="0.00" timeLoss="50.36" rerouteNo="0" devices="tripinfo_flow01.0 emissions_flow01.0" vType="CarA" speedFactor="1.02" vaporized="">
        <emissions CO_abs="8950.424097" CO2_abs="229513.150521" HC_abs="46.044797" PMx_abs="4.925594" NOx_abs="99.516137" fuel_abs="73206.581903" electricity_abs="0"/>
    </tripinfo>
    <tripinfo id="flow04.1" depart="37.00" departLane="s_t_0" departPos="5.10" departSpeed="0.00" departDelay="0.07" arrival="91.00" arrivalLane="t_n_0" arrivalPos="136.25" arrivalSpeed="14.02" duration="54.00" routeLength="294.90" waitingTime="22.00" waitingCount="1" stopTime="0.00" timeLoss="32.88" rerouteNo="0" devices="tripinfo_flow04.1 emissions_flow04.1" vType="CarA" speedFactor="1.03" vaporized="">
        <emissions CO_abs="5835.677859" CO2_abs="180673.275213" HC_abs="30.765860" PMx_abs="3.694859" NOx_abs="77.165038" fuel_abs="57627.829840" electricity_abs="0"/>
    </tripinfo>
    <tripinfo id="flow05.1" depart="14.00" departLane="s_t_0" departPos="5.10" departSpeed="0.00" departDelay="1.45" arrival="92.00" arrivalLane="t_w_0" arrivalPos="136.25" arrivalSpeed="12.79" duration="78.00" routeLength="279.21" waitingTime="45.00" waitingCount="1" stopTime="0.00" timeLoss="55.50" rerouteNo="0" devices="tripinfo_flow05.1 emissions_flow05.1" vType="CarA" speedFactor="0.96" vaporized="">
        <emissions CO_abs="9665.176811" CO2_abs="231289.471931" HC_abs="49.362784" PMx_abs="5.053965" NOx_abs="101.200499" fuel_abs="73773.458989" electricity_abs="0"/>
    </tripinfo>
    <tripinfo id="flow03.1" depart="45.00" departLane="n_t_0" departPos="5.10" departSpeed="0.00" departDelay="3.35" arrival="92.00" arrivalLane="t_e_0" arrivalPos="136.25" arrivalSpeed="12.71" duration="47.00" routeLength="279.21" waitingTime="14.00" waitingCount="1" stopTime="0.00" timeLoss="24.30" rerouteNo="0" devices="tripinfo_flow03.1 emissions_flow03.1" vType="CarA" speedFactor="0.92" vaporized="">
        <emissions CO_abs="4642.011283" CO2_abs="150902.103319" HC_abs="24.637530" PMx_abs="2.946789" NOx_abs="63.738290" fuel_abs="48131.973446" electricity_abs="0"/>
    </tripinfo>
    <tripinfo id="flow01.1" depart="24.00" departLane="n_t_0" departPos="5.10" departSpeed="0.00" departDelay="0.45" arrival="93.00" arrivalLane="t_s_0" arrivalPos="136.25" arrivalSpeed="11.52" duration="69.00" routeLength="294.90" waitingTime="35.00" waitingCount="1" stopTime="0.00" timeLoss="44.80" rerouteNo="0" devices="tripinfo_flow01.1 emissions_flow01.1" vType="CarA" speedFactor="0.90" vaporized="">
        <emissions CO_abs="7958.931183" CO2_abs="199581.464964" HC_abs="40.898935" PMx_abs="4.305256" NOx_abs="87.016194" fuel_abs="63659.509749" electricity_abs="0"/>
    </tripinfo>
    <tripinfo id="flow05.2" depart="58.00" departLane="s_t_0" departPos="5.10" departSpeed="0.00" departDelay="0.45" arrival="94.00" arrivalLane="t_w_0" arrivalPos="136.25" arrivalSpeed="13.52" duration="36.00" routeLength="279.21" waitingTime="3.00" waitingCount="1" stopTime="0.00" timeLoss="14.72" rerouteNo="0" devices="tripinfo_flow05.2 emissions_flow05.2" vType="CarA" speedFactor="1.03" vaporized="">
        <emissions CO_abs="2890.266329" CO2_abs="129448.625792" HC_abs="16.181633" PMx_abs="2.427878" NOx_abs="53.960330" fuel_abs="41288.563724" electricity_abs="0"/>
    </tripinfo>
    <tripinfo id="flow04.2" depart="65.00" departLane="s_t_0" departPos="5.10" departSpeed="0.00" departDelay="0.55" arrival="94.00" arrivalLane="t_n_0" arrivalPos="136.25" arrivalSpeed="11.92" duration="29.00" routeLength="294.90" waitingTime="0.00" waitingCount="0" stopTime="0.00" timeLoss="5.53" rerouteNo="0" devices="tripinfo_flow04.2 emissions_flow04.2" vType="CarA" speedFactor="0.93" vaporized="">
        <emissions CO_abs="1481.059136" CO2_abs="92990.955464" HC_abs="8.884870" PMx_abs="1.569686" NOx_abs="37.501503" fuel_abs="29659.961209" electricity_abs="0"/>
    </tripinfo>
    <tripinfo id="flow01.2" depart="31.00" departLane="n_t_0" departPos="5.10" departSpeed="0.00" departDelay="0.94" arrival="95.00" arrivalLane="t_s_0" arrivalPos="136.25" arrivalSpeed="12.77" duration="64.00" routeLength="294.90" waitingTime="31.00" waitingCount="1" stopTime="0.00" timeLoss="40.91" rerouteNo="0" devices="tripinfo_flow01.2 emissions_flow01.2" vType="CarA" speedFactor="0.95" vaporized="">
        <emissions CO_abs="7425.766313" CO2_abs="201061.059152" HC_abs="38.544617" PMx_abs="4.283735" NOx_abs="87.288475" fuel_abs="64131.135958" electricity_abs="0"/>
    </tripinfo>
    <tripinfo id="flow03.2" depart="58.00" departLane="n_t_0" departPos="5.10" departSpeed="0.00" departDelay="2.70" arrival="95.00" arrivalLane="t_e_0" arrivalPos="136.25" arrivalSpeed="12.68" duration="37.00" routeLength="279.21" waitingTime="4.00" waitingCount="1" stopTime="0.00" timeLoss="14.32" rerouteNo="0" devices="tripinfo_flow03.2 emissions_flow03.2" vType="CarA" speedFactor="0.96" vaporized="">
        <emissions CO_abs="2973.769495" CO2_abs="123224.137031" HC_abs="16.437273" PMx_abs="2.359509" NOx_abs="51.809696" fuel_abs="39303.297653" electricity_abs="0"/>
    </tripinfo>
    <tripinfo id="flow04.3" depart="69.00" departLane="s_t_0" departPos="5.10" departSpeed="0.00" departDelay="1.45" arrival="95.00" arrivalLane="t_n_0" arrivalPos="136.25" arrivalSpeed="13.99" duration="26.00" routeLength="294.90" waitingTime="0.00" waitingCount="0" stopTime="0.00" timeLoss="7.37" rerouteNo="0" devices="tripinfo_flow04.3 emissions_flow04.3" vType="CarA" speedFactor="1.15" vaporized="">
        <emissions CO_abs="1518.516557" CO2_abs="100848.893819" HC_abs="9.294057" PMx_abs="1.812282" NOx_abs="41.338505" fuel_abs="32166.116922" electricity_abs="0"/>
    </tripinfo>
    <tripinfo id="flow01.3" depart="42.00" departLane="n_t_0" departPos="5.10" departSpeed="0.00" departDelay="0.08" arrival="96.00" arrivalLane="t_s_0" arrivalPos="136.25" arrivalSpeed="14.92" duration="54.00" routeLength="294.90" waitingTime="22.00" waitingCount="1" stopTime="0.00" timeLoss="35.30" rerouteNo="0" devices="tripinfo_flow01.3 emissions_flow01.3" vType="CarA" speedFactor="1.15" vaporized="">
        <emissions CO_abs="6199.134300" CO2_abs="193525.812710" HC_abs="32.760317" PMx_abs="4.123860" NOx_abs="84.049450" fuel_abs="61727.055408" electricity_abs="0"/>
    </tripinfo>
    <tripinfo id="flow05.3" depart="61.00" departLane="s_t_0" departPos="5.10" departSpeed="0.00" departDelay="0.12" arrival="97.00" arrivalLane="t_w_0" arrivalPos="136.25" arrivalSpeed="12.34" duration="36.00" routeLength="279.21" waitingTime="2.00" waitingCount="1" stopTime="0.00" timeLoss="13.49" rerouteNo="0" devices="tripinfo_flow05.3 emissions_flow05.3" vType="CarA" speedFactor="0.96" vaporized="">
        <emissions CO_abs="2706.643860" CO2_abs="118995.372319" HC_abs="15.123471" PMx_abs="2.265420" NOx_abs="49.984964" fuel_abs="37954.407355" electricity_abs="0"/>
    </tripinfo>
    <tripinfo id="flow01.4" depart="56.00" departLane="n_t_0" departPos="5.10" departSpeed="0.00" departDelay="0.70" arrival="98.00" arrivalLane="t_s_0" arrivalPos="136.25" arrivalSpeed="14.06" duration="42.00" routeLength="294.90" waitingTime="9.00" waitingCount="1" stopTime="0.00" timeLoss="21.71" rerouteNo="0" devices="tripinfo_flow01.4 emissions_flow01.4" vType="CarA" speedFactor="1.07" vaporized="">
        <emissions CO_abs="4064.908250" CO2_abs="158471.793490" HC_abs="22.251579" PMx_abs="3.181989" NOx_abs="67.518054" fuel_abs="50545.801817" electricity_abs="0"/>
    </tripinfo>
    <tripinfo id="flow04.4" depart="72.00" departLane="s_t_0" departPos="5.10" departSpeed="0.00" departDelay="1.78" arrival="98.00" arrivalLane="t_n_0" arrivalPos="136.25" arrivalSpeed="12.67" duration="26.00" routeLength="294.90" waitingTime="0.00" waitingCount="0" stopTime="0.00" timeLoss="3.86" rerouteNo="0" devices="tripinfo_flow04.4 emissions_flow04.4" vType="CarA" speedFactor="0.96" vaporized="">
        <emissions CO_abs="1060.729079" CO2_abs="78450.965112" HC_abs="6.530972" PMx_abs="1.196397" NOx_abs="30.481387" fuel_abs="25022.392836" electricity_abs="0"/>
    </tripinfo>
    <tripinfo id="flow04.5" depart="75.00" departLane="s_t_0" departPos="5.10" departSpeed="0.00" departDelay="0.05" arrival="100.00" arrivalLane="t_n_0" arrivalPos="136.25" arrivalSpeed="15.32" duration="25.00" routeLength="294.90" waitingTime="0.00" waitingCount="0" stopTime="0.00" timeLoss="5.79" rerouteNo="0" devices="tripinfo_flow04.5 emissions_flow04.5" vType="CarA" speedFactor="1.14" vaporized="">
        <emissions CO_abs="1367.449541" CO2_abs="92633.645821" HC_abs="8.313543" PMx_abs="1.640916" NOx_abs="37.524213" fuel_abs="29545.846001" electricity_abs="0"/>
    </tripinfo>
    <tripinfo id="flow03.3" depart="75.00" departLane="n_t_0" departPos="5.10" departSpeed="0.00" departDelay="0.09" arrival="101.00" arrivalLane="t_e_0" arrivalPos="136.25" arrivalSpeed="13.16" duration="26.00" routeLength="279.21" waitingTime="0.00" waitingCount="0" stopTime="0.00" timeLoss="5.31" rerouteNo="0" devices="tripinfo_flow03.3 emissions_flow03.3" vType="CarA" speedFactor="1.02" vaporized="">
        <emissions CO_abs="1520.533592" CO2_abs="94558.476044" HC_abs="9.111237" PMx_abs="1.687122" NOx_abs="38.623247" fuel_abs="30159.835248" electricity_abs="0"/>
    </tripinfo>
    <tripinfo id="flow01.5" depart="79.00" departLane="n_t_0" departPos="5.10" departSpeed="0.00" departDelay="0.60" arrival="104.00" arrivalLane="t_s_0" arrivalPos="136.25" arrivalSpeed="13.66" duration="25.00" routeLength="294.90" waitingTime="0.00" waitingCount="0" stopTime="0.00" timeLoss="4.36" rerouteNo="0" devices="tripinfo_flow01.5 emissions_flow01.5" vType="CarA" speedFactor="1.07" vaporized="">
        <emissions CO_abs="1258.102149" CO2_abs="85979.165801" HC_abs="7.671985" PMx_abs="1.480268" NOx_abs="34.443649" fuel_abs="27423.426969" electricity_abs="0"/>
    </tripinfo>
    <tripinfo id="flow04.6" depart="80.00" departLane="s_t_0" departPos="5.10" departSpeed="0.00" departDelay="0.75" arrival="105.00" arrivalLane="t_n_0" arrivalPos="136.25" arrivalSpeed="12.90" duration="25.00" routeLength="294.90" waitingTime="0.00" waitingCount="0" stopTime="0.00" timeLoss="3.77" rerouteNo="0" devices="tripinfo_flow04.6 emissions_flow04.6" vType="CarA" speedFactor="1.02" vaporized="">
        <emissions CO_abs="1064.189832" CO2_abs="79847.201128" HC_abs="6.669857" PMx_abs="1.292112" NOx_abs="31.561754" fuel_abs="25467.638412" electricity_abs="0"/>
    </tripinfo>
    <tripinfo id="flow02.0" depart="21.00" departLane="n_t_0" departPos="5.10" departSpeed="0.00" departDelay="2.04" arrival="109.00" arrivalLane="t_w_0" arrivalPos="136.25" arrivalSpeed="15.12" duration="88.00" routeLength="293.40" waitingTime="54.00" waitingCount="2" stopTime="0.00" timeLoss="68.91" rerouteNo="0" devices="tripinfo_flow02.0 emissions_flow02.0" vType="CarA" speedFactor="1.17" vaporized="">
        <emissions CO_abs="11516.704178" CO2_abs="278470.815652" HC_abs="58.923558" PMx_abs="6.205469" NOx_abs="122.338029" fuel_abs="88822.505849" electricity_abs="0"/>
    </tripinfo>
    <tripinfo id="flow06.0" depart="20.00" departLane="s_t_0" departPos="5.10" departSpeed="0.00" departDelay="0.07" arrival="110.00" arrivalLane="t_e_0" arrivalPos="136.25" arrivalSpeed="12.73" duration="90.00" routeLength="293.40" waitingTime="56.00" waitingCount="2" stopTime="0.00" timeLoss="66.30" rerouteNo="0" devices="tripinfo_flow06.0 emissions_flow06.0" vType="CarA" speedFactor="0.93" vaporized="">
        <emissions CO_abs="11433.475499" CO2_abs="263121.454437" HC_abs="58.200712" PMx_abs="5.758728" NOx_abs="115.165506" fuel_abs="83927.055126" electricity_abs="0"/>
    </tripinfo>
    <tripinfo id="flow04.7" depart="88.00" departLane="s_t_0" departPos="5.10" departSpeed="0.00" departDelay="0.12" arrival="113.00" arrivalLane="t_n_0" arrivalPos="136.25" arrivalSpeed="13.34" duration="25.00" routeLength="294.90" waitingTime="0.00" waitingCount="0" stopTime="0.00" timeLoss="4.13" rerouteNo="0" devices="tripinfo_flow04.7 emissions_flow04.7" vType="CarA" speedFactor="1.05" vaporized="">
        <emissions CO_abs="1269.247668" CO2_abs="89535.957259" HC_abs="7.853956" PMx_abs="1.554600" NOx_abs="36.034471" fuel_abs="28557.840638" electricity_abs="0"/>
    </tripinfo>
    <tripinfo id="flow01.6" depart="88.00" departLane="n_t_0" departPos="5.10" departSpeed="0.00" departDelay="0.36" arrival="118.00" arrivalLane="t_s_0" arrivalPos="136.25" arrivalSpeed="10.28" duration="30.00" routeLength="294.90" waitingTime="0.00" waitingCount="0" stopTime="0.00" timeLoss="3.94" rerouteNo="0" devices="tripinfo_flow01.6 emissions_flow01.6" vType="CarA" speedFactor="0.82" vaporized="">
        <emissions CO_abs="1131.592466" CO2_abs="78033.798029" HC_abs="6.893086" PMx_abs="1.062827" NOx_abs="29.721585" fuel_abs="24889.528333" electricity_abs="0"/>
    </tripinfo>
    <tripinfo id="flow02.1" depart="63.00" departLane="n_t_0" departPos="5.10" departSpeed="0.00" departDelay="0.80" arrival="119.00" arrivalLane="t_w_0" arrivalPos="136.25" arrivalSpeed="11.93" duration="56.00" routeLength="293.40" waitingTime="19.00" waitingCount="2" stopTime="0.00" timeLoss="32.27" rerouteNo="0" devices="tripinfo_flow02.1 emissions_flow02.1" vType="CarA" speedFactor="0.92" vaporized="">
        <emissions CO_abs="5508.239304" CO2_abs="164577.754117" HC_abs="28.809705" PMx_abs="3.197721" NOx_abs="69.266875" fuel_abs="52494.284021" electricity_abs="0"/>
    </tripinfo>
    <tripinfo id="flow09.3" depart="77.00" departLane="w_t_0" departPos="5.10" departSpeed="0.00" departDelay="0.59" arrival="120.00" arrivalLane="t_n_0" arrivalPos="136.25" arrivalSpeed="14.52" duration="43.00" routeLength="279.21" waitingTime="14.00" waitingCount="1" stopTime="0.00" timeLoss="22.85" rerouteNo="0" devices="tripinfo_flow09.3 emissions_flow09.3" vType="CarA" speedFactor="1.06" vaporized="">
        <emissions CO_abs="4558.845538" CO2_abs="156070.163516" HC_abs="24.365603" PMx_abs="3.181084" NOx_abs="66.511980" fuel_abs="49780.087724" electricity_abs="0"/>
    </tripinfo>
    <tripinfo id="flow11.3" depart="74.00" departLane="e_t_0" departPos="5.10" departSpeed="0.00" departDelay="0.49" arrival="121.00" arrivalLane="t_s_0" arrivalPos="136.25" arrivalSpeed="15.52" duration="47.00" routeLength="279.21" waitingTime="17.00" waitingCount="1" stopTime="0.00" timeLoss="28.46" rerouteNo="0" devices="tripinfo_flow11.3 emissions_flow11.3" vType="CarA" speedFactor="1.16" vaporized="">