<?xml version="1.0" encoding="UTF-8"?>

<!-- generated on 2024-07-08 17:38:35 by Eclipse SUMO libsumo Version 1.20.0
<configuration xmlns:xsi="http://www.w3.org/2001/XMLSchema-instance" xsi:noNamespaceSchemaLocation="http://sumo.dlr.de/xsd/libsumoConfiguration.xsd">

    <input>
        <net-file value="D:\trg1vr\sumo-rl\sumo_rl\nets\2way-single-intersection\2-stage.xml"/>
        <route-files value="autodl-tmp\outputs\2_0.7-0.7-0.7-0.7\output.rou.xml"/>
    </input>

    <output>
        <tripinfo-output value="autodl-tmp\outputs\2_0.7-0.7-0.7-0.7\tripinfos-2.xml"/>
    </output>

    <processing>
        <time-to-teleport value="-1"/>
        <waiting-time-memory value="1000"/>
        <max-depart-delay value="-1"/>
    </processing>

    <emissions>
        <device.emissions.probability value="1.0"/>
    </emissions>

    <random_number>
        <seed value="12"/>
    </random_number>

</configuration>
-->

<tripinfos xmlns:xsi="http://www.w3.org/2001/XMLSchema-instance" xsi:noNamespaceSchemaLocation="http://sumo.dlr.de/xsd/tripinfo_file.xsd">
    <tripinfo id="flow04.0" depart="2.00" departLane="s_t_0" departPos="5.10" departSpeed="0.00" departDelay="0.46" arrival="30.00" arrivalLane="t_n_0" arrivalPos="136.25" arrivalSpeed="11.89" duration="28.00" routeLength="294.90" waitingTime="0.00" waitingCount="0" stopTime="0.00" timeLoss="3.57" rerouteNo="0" devices="tripinfo_flow04.0 emissions_flow04.0" vType="CarA" speedFactor="0.88" vaporized="">
        <emissions CO_abs="1066.362437" CO2_abs="81067.078232" HC_abs="6.683330" PMx_abs="1.138074" NOx_abs="31.015134" fuel_abs="25856.909959" electricity_abs="0"/>
    </tripinfo>
    <tripinfo id="flow04.1" depart="5.00" departLane="s_t_0" departPos="5.10" departSpeed="0.00" departDelay="2.27" arrival="32.00" arrivalLane="t_n_0" arrivalPos="136.25" arrivalSpeed="12.75" duration="27.00" routeLength="294.90" waitingTime="0.00" waitingCount="0" stopTime="0.00" timeLoss="4.70" rerouteNo="0" devices="tripinfo_flow04.1 emissions_flow04.1" vType="CarA" speedFactor="0.98" vaporized="">
        <emissions CO_abs="1224.938963" CO2_abs="86889.311736" HC_abs="7.575020" PMx_abs="1.413941" NOx_abs="34.490669" fuel_abs="27713.781036" electricity_abs="0"/>
    </tripinfo>
    <tripinfo id="flow03.0" depart="6.00" departLane="n_t_0" departPos="5.10" departSpeed="0.00" departDelay="0.90" arrival="32.00" arrivalLane="t_e_0" arrivalPos="136.25" arrivalSpeed="13.37" duration="26.00" routeLength="279.21" waitingTime="0.00" waitingCount="0" stopTime="0.00" timeLoss="5.71" rerouteNo="0" devices="tripinfo_flow03.0 emissions_flow03.0" vType="CarA" speedFactor="1.03" vaporized="">
        <emissions CO_abs="1502.866365" CO2_abs="96639.877219" HC_abs="9.118539" PMx_abs="1.719632" NOx_abs="39.540642" fuel_abs="30823.681868" electricity_abs="0"/>
    </tripinfo>
    <tripinfo id="flow11.0" depart="2.00" departLane="e_t_0" departPos="5.10" departSpeed="0.00" departDelay="0.56" arrival="44.00" arrivalLane="t_s_0" arrivalPos="136.25" arrivalSpeed="13.80" duration="42.00" routeLength="279.21" waitingTime="10.00" waitingCount="1" stopTime="0.00" timeLoss="20.93" rerouteNo="0" devices="tripinfo_flow11.0 emissions_flow11.0" vType="CarA" speedFactor="1.04" vaporized="">
        <emissions CO_abs="4064.611183" CO2_abs="149089.347528" HC_abs="21.905080" PMx_abs="2.895543" NOx_abs="62.504005" fuel_abs="47553.474089" electricity_abs="0"/>
    </tripinfo>
    <tripinfo id="flow10.0" depart="12.00" departLane="e_t_0" departPos="5.10" departSpeed="0.00" departDelay="0.09" arrival="44.00" arrivalLane="t_w_0" arrivalPos="136.25" arrivalSpeed="14.45" duration="32.00" routeLength="294.90" waitingTime="2.00" waitingCount="1" stopTime="0.00" timeLoss="11.86" rerouteNo="0" devices="tripinfo_flow10.0 emissions_flow10.0" vType="CarA" speedFactor="1.07" vaporized="">
        <emissions CO_abs="2417.581141" CO2_abs="127510.154250" HC_abs="13.975357" PMx_abs="2.396276" NOx_abs="53.018025" fuel_abs="40670.002557" electricity_abs="0"/>
    </tripinfo>
    <tripinfo id="flow07.0" depart="9.00" departLane="w_t_0" departPos="5.10" departSpeed="0.00" departDelay="1.87" arrival="47.00" arrivalLane="t_e_0" arrivalPos="136.25" arrivalSpeed="11.43" duration="38.00" routeLength="294.90" waitingTime="4.00" waitingCount="1" stopTime="0.00" timeLoss="13.19" rerouteNo="0" devices="tripinfo_flow07.0 emissions_flow07.0" vType="CarA" speedFactor="0.88" vaporized="">
        <emissions CO_abs="2682.959367" CO2_abs="117806.174696" HC_abs="14.958510" PMx_abs="2.094526" NOx_abs="48.395445" fuel_abs="37575.285275" electricity_abs="0"/>
    </tripinfo>
    <tripinfo id="flow08.0" depart="6.00" departLane="w_t_0" departPos="5.10" departSpeed="0.00" departDelay="0.52" arrival="49.00" arrivalLane="t_s_0" arrivalPos="136.25" arrivalSpeed="14.26" duration="43.00" routeLength="293.40" waitingTime="10.00" waitingCount="2" stopTime="0.00" timeLoss="22.20" rerouteNo="0" devices="tripinfo_flow08.0 emissions_flow08.0" vType="CarA" speedFactor="1.06" vaporized="">
        <emissions CO_abs="4329.669284" CO2_abs="159004.723122" HC_abs="23.356564" PMx_abs="3.159049" NOx_abs="67.350829" fuel_abs="50715.970880" electricity_abs="0"/>
    </tripinfo>
    <tripinfo id="flow05.0" depart="23.00" departLane="s_t_0" departPos="5.10" departSpeed="0.00" departDelay="0.38" arrival="53.00" arrivalLane="t_w_0" arrivalPos="136.25" arrivalSpeed="12.30" duration="30.00" routeLength="279.21" waitingTime="0.00" waitingCount="0" stopTime="0.00" timeLoss="8.23" rerouteNo="0" devices="tripinfo_flow05.0 emissions_flow05.0" vType="CarA" speedFactor="0.96" vaporized="">
        <emissions CO_abs="1986.934909" CO2_abs="103593.532544" HC_abs="11.412916" PMx_abs="1.853997" NOx_abs="42.596459" fuel_abs="33041.787180" electricity_abs="0"/>
    </tripinfo>
    <tripinfo id="flow01.0" depart="22.00" departLane="n_t_0" departPos="5.10" departSpeed="0.00" departDelay="0.75" arrival="54.00" arrivalLane="t_s_0" arrivalPos="136.25" arrivalSpeed="12.56" duration="32.00" routeLength="294.90" waitingTime="0.00" waitingCount="0" stopTime="0.00" timeLoss="9.67" rerouteNo="0" devices="tripinfo_flow01.0 emissions_flow01.0" vType="CarA" speedFactor="0.98" vaporized="">
        <emissions CO_abs="2006.321923" CO2_abs="114280.094606" HC_abs="11.699818" PMx_abs="1.980562" NOx_abs="46.251845" fuel_abs="36450.300607" electricity_abs="0"/>
    </tripinfo>
    <tripinfo id="flow05.1" depart="26.00" departLane="s_t_0" departPos="5.10" departSpeed="0.00" departDelay="0.68" arrival="55.00" arrivalLane="t_w_0" arrivalPos="136.25" arrivalSpeed="12.45" duration="29.00" routeLength="279.21" waitingTime="0.00" waitingCount="0" stopTime="0.00" timeLoss="7.60" rerouteNo="0" devices="tripinfo_flow05.1 emissions_flow05.1" vType="CarA" speedFactor="0.99" vaporized="">
        <emissions CO_abs="1728.838103" CO2_abs="99376.515526" HC_abs="10.056444" PMx_abs="1.767265" NOx_abs="40.635881" fuel_abs="31696.639667" electricity_abs="0"/>
    </tripinfo>
    <tripinfo id="flow02.0" depart="14.00" departLane="n_t_0" departPos="5.10" departSpeed="0.00" departDelay="0.32" arrival="57.00" arrivalLane="t_w_0" arrivalPos="136.25" arrivalSpeed="13.77" duration="43.00" routeLength="293.40" waitingTime="8.00" waitingCount="1" stopTime="0.00" timeLoss="21.27" rerouteNo="0" devices="tripinfo_flow02.0 emissions_flow02.0" vType="CarA" speedFactor="1.01" vaporized="">
        <emissions CO_abs="3875.547573" CO2_abs="146243.532325" HC_abs="21.022989" PMx_abs="2.853398" NOx_abs="61.557218" fuel_abs="46645.682928" electricity_abs="0"/>
    </tripinfo>
    <tripinfo id="flow01.1" depart="25.00" departLane="n_t_0" departPos="5.10" departSpeed="0.00" departDelay="3.57" arrival="57.00" arrivalLane="t_s_0" arrivalPos="136.25" arrivalSpeed="11.78" duration="32.00" routeLength="294.90" waitingTime="0.00" waitingCount="0" stopTime="0.00" timeLoss="7.33" rerouteNo="0" devices="tripinfo_flow01.1 emissions_flow01.1" vType="CarA" speedFactor="0.88" vaporized="">
        <emissions CO_abs="1693.235314" CO2_abs="99721.609699" HC_abs="9.996977" PMx_abs="1.689624" NOx_abs="40.421942" fuel_abs="31806.786040" electricity_abs="0"/>
    </tripinfo>
    <tripinfo id="flow02.1" depart="21.00" departLane="n_t_0" departPos="5.10" departSpeed="0.00" departDelay="0.69" arrival="59.00" arrivalLane="t_w_0" arrivalPos="136.25" arrivalSpeed="13.06" duration="38.00" routeLength="293.40" waitingTime="4.00" waitingCount="1" stopTime="0.00" timeLoss="16.29" rerouteNo="0" devices="tripinfo_flow02.1 emissions_flow02.1" vType="CarA" speedFactor="1.01" vaporized="">
        <emissions CO_abs="3077.676755" CO2_abs="127198.162763" HC_abs="16.985480" PMx_abs="2.510443" NOx_abs="53.911982" fuel_abs="40570.763016" electricity_abs="0"/>
    </tripinfo>
    <tripinfo id="flow01.2" depart="28.00" departLane="n_t_0" departPos="5.10" departSpeed="0.00" departDelay="5.91" arrival="59.00" arrivalLane="t_s_0" arrivalPos="136.25" arrivalSpeed="15.30" duration="31.00" routeLength="294.90" waitingTime="0.00" waitingCount="0" stopTime="0.00" timeLoss="11.72" rerouteNo="0" devices="tripinfo_flow01.2 emissions_flow01.2" vType="CarA" speedFactor="1.15" vaporized="">
        <emissions CO_abs="2100.390196" CO2_abs="121184.714085" HC_abs="12.403675" PMx_abs="2.315083" NOx_abs="50.810363" fuel_abs="38652.288918" electricity_abs="0"/>
    </tripinfo>
    <tripinfo id="flow01.3" depart="33.00" departLane="n_t_0" departPos="5.10" departSpeed="0.00" departDelay="2.61" arrival="60.00" arrivalLane="t_s_0" arrivalPos="136.25" arrivalSpeed="12.80" duration="27.00" routeLength="294.90" waitingTime="0.00" waitingCount="0" stopTime="0.00" timeLoss="5.46" rerouteNo="0" devices="tripinfo_flow01.3 emissions_flow01.3" vType="CarA" speedFactor="0.99" vaporized="">
        <emissions CO_abs="1475.011280" CO2_abs="96679.109658" HC_abs="8.924708" PMx_abs="1.685021" NOx_abs="39.182679" fuel_abs="30836.216873" electricity_abs="0"/>
    </tripinfo>
    <tripinfo id="flow02.2" depart="31.00" departLane="n_t_0" departPos="5.10" departSpeed="0.00" departDelay="2.20" arrival="62.00" arrivalLane="t_w_0" arrivalPos="136.25" arrivalSpeed="12.80" duration="31.00" routeLength="293.40" waitingTime="0.00" waitingCount="0" stopTime="0.00" timeLoss="8.34" rerouteNo="0" devices="tripinfo_flow02.2 emissions_flow02.2" vType="CarA" speedFactor="0.96" vaporized="">
        <emissions CO_abs="1798.754712" CO2_abs="108027.411869" HC_abs="10.600658" PMx_abs="1.846828" NOx_abs="43.799960" fuel_abs="34455.921105" electricity_abs="0"/>
    </tripinfo>
    <tripinfo id="flow01.4" depart="39.00" departLane="n_t_0" departPos="5.10" departSpeed="0.00" departDelay="0.40" arrival="67.00" arrivalLane="t_s_0" arrivalPos="136.25" arrivalSpeed="11.71" duration="28.00" routeLength="294.90" waitingTime="0.00" waitingCount="0" stopTime="0.00" timeLoss="4.32" rerouteNo="0" devices="tripinfo_flow01.4 emissions_flow01.4" vType="CarA" speedFactor="0.92" vaporized="">
        <emissions CO_abs="1136.091191" CO2_abs="82131.186672" HC_abs="6.929906" PMx_abs="1.188693" NOx_abs="31.482544" fuel_abs="26196.311920" electricity_abs="0"/>
    </tripinfo>
    <tripinfo id="flow01.5" depart="42.00" departLane="n_t_0" departPos="5.10" departSpeed="0.00" departDelay="0.35" arrival="68.00" arrivalLane="t_s_0" arrivalPos="136.25" arrivalSpeed="13.56" duration="26.00" routeLength="294.90" waitingTime="0.00" waitingCount="0" stopTime="0.00" timeLoss="4.41" rerouteNo="0" devices="tripinfo_flow01.5 emissions_flow01.5" vType="CarA" speedFactor="0.99" vaporized="">
        <emissions CO_abs="1230.963263" CO2_abs="90162.140006" HC_abs="7.636279" PMx_abs="1.442960" NOx_abs="35.586245" fuel_abs="28757.667103" electricity_abs="0"/>
    </tripinfo>
    <tripinfo id="flow04.2" depart="42.00" departLane="s_t_0" departPos="5.10" departSpeed="0.00" departDelay="0.65" arrival="68.00" arrivalLane="t_n_0" arrivalPos="136.25" arrivalSpeed="12.78" duration="26.00" routeLength="294.90" waitingTime="0.00" waitingCount="0" stopTime="0.00" timeLoss="4.04" rerouteNo="0" devices="tripinfo_flow04.2 emissions_flow04.2" vType="CarA" speedFactor="1.00" vaporized="">
        <emissions CO_abs="1083.006468" CO2_abs="85798.977249" HC_abs="6.671139" PMx_abs="1.252193" NOx_abs="32.654716" fuel_abs="27366.098577" electricity_abs="0"/>
    </tripinfo>
    <tripinfo id="flow03.1" depart="48.00" departLane="n_t_0" departPos="5.10" departSpeed="0.00" departDelay="0.62" arrival="73.00" arrivalLane="t_e_0" arrivalPos="136.25" arrivalSpeed="13.96" duration="25.00" routeLength="279.21" waitingTime="0.00" waitingCount="0" stopTime="0.00" timeLoss="5.29" rerouteNo="0" devices="tripinfo_flow03.1 emissions_flow03.1" vType="CarA" speedFactor="1.08" vaporized="">
        <emissions CO_abs="1574.761252" CO2_abs="106329.580707" HC_abs="9.575655" PMx_abs="1.878374" NOx_abs="43.007379" fuel_abs="33914.220216" electricity_abs="0"/>
    </tripinfo>
    <tripinfo id="flow04.3" depart="47.00" departLane="s_t_0" departPos="5.10" departSpeed="0.00" departDelay="3.14" arrival="76.00" arrivalLane="t_n_0" arrivalPos="136.25" arrivalSpeed="11.28" duration="29.00" routeLength="294.90" waitingTime="0.00" waitingCount="0" stopTime="0.00" timeLoss="4.16" rerouteNo="0" devices="tripinfo_flow04.3 emissions_flow04.3" vType="CarA" speedFactor="0.88" vaporized="">
        <emissions CO_abs="1181.088985" CO2_abs="74595.067849" HC_abs="7.110504" PMx_abs="1.210528" NOx_abs="29.807415" fuel_abs="23792.542879" electricity_abs="0"/>
    </tripinfo>
    <tripinfo id="flow06.0" depart="45.00" departLane="s_t_0" departPos="5.10" departSpeed="0.00" departDelay="3.50" arrival="77.00" arrivalLane="t_e_0" arrivalPos="136.25" arrivalSpeed="13.50" duration="32.00" routeLength="293.40" waitingTime="0.00" waitingCount="0" stopTime="0.00" timeLoss="9.16" rerouteNo="0" devices="tripinfo_flow06.0 emissions_flow06.0" vType="CarA" speedFactor="0.98" vaporized="">
        <emissions CO_abs="2157.096881" CO2_abs="115468.233335" HC_abs="12.467408" PMx_abs="2.080435" NOx_abs="47.417349" fuel_abs="36829.251116" electricity_abs="0"/>
    </tripinfo>
    <tripinfo id="flow04.4" depart="50.00" departLane="s_t_0" departPos="5.10" departSpeed="0.00" departDelay="5.47" arrival="77.00" arrivalLane="t_n_0" arrivalPos="136.25" arrivalSpeed="12.66" duration="27.00" routeLength="294.90" waitingTime="0.00" waitingCount="0" stopTime="0.00" timeLoss="4.96" rerouteNo="0" devices="tripinfo_flow04.4 emissions_flow04.4" vType="CarA" speedFactor="0.96" vaporized="">
        <emissions CO_abs="1296.532118" CO2_abs="88609.270082" HC_abs="7.931396" PMx_abs="1.458226" NOx_abs="35.427718" fuel_abs="28262.368964" electricity_abs="0"/>
    </tripinfo>
    <tripinfo id="flow05.2" depart="54.00" departLane="s_t_0" departPos="5.10" departSpeed="0.00" departDelay="0.52" arrival="84.00" arrivalLane="t_w_0" arrivalPos="136.25" arrivalSpeed="10.83" duration="30.00" routeLength="279.21" waitingTime="0.00" waitingCount="0" stopTime="0.00" timeLoss="5.02" rerouteNo="0" devices="tripinfo_flow05.2 emissions_flow05.2" vType="CarA" speedFactor="0.86" vaporized="">
        <emissions CO_abs="1426.967165" CO2_abs="84010.526651" HC_abs="8.449580" PMx_abs="1.397445" NOx_abs="33.942960" fuel_abs="26795.671837" electricity_abs="0"/>
    </tripinfo>
    <tripinfo id="flow05.3" depart="61.00" departLane="s_t_0" departPos="5.10" departSpeed="0.00" departDelay="0.77" arrival="86.00" arrivalLane="t_w_0" arrivalPos="136.25" arrivalSpeed="15.45" duration="25.00" routeLength="279.21" waitingTime="0.00" waitingCount="0" stopTime="0.00" timeLoss="6.98" rerouteNo="0" devices="tripinfo_flow05.3 emissions_flow05.3" vType="CarA" speedFactor="1.18" vaporized="">
        <emissions CO_abs="1776.818110" CO2_abs="110049.351092" HC_abs="10.649522" PMx_abs="2.072516" NOx_abs="45.702057" fuel_abs="35100.596670" electricity_abs="0"/>
    </tripinfo>
    <tripinfo id="flow05.4" depart="64.00" departLane="s_t_0" departPos="5.10" departSpeed="0.00" departDelay="0.33" arrival="91.00" arrivalLane="t_w_0" arrivalPos="136.25" arrivalSpeed="12.28" duration="27.00" routeLength="279.21" waitingTime="0.00" waitingCount="0" stopTime="0.00" timeLoss="5.25" rerouteNo="0" devices="tripinfo_flow05.4 emissions_flow05.4" vType="CarA" speedFactor="0.97" vaporized="">
        <emissions CO_abs="1517.483477" CO2_abs="90303.578122" HC_abs="8.986078" PMx_abs="1.625868" NOx_abs="37.167327" fuel_abs="28802.729811" electricity_abs="0"/>
    </tripinfo>
    <tripinfo id="flow03.2" depart="68.00" departLane="n_t_0" departPos="5.10" departSpeed="0.00" departDelay="0.76" arrival="94.00" arrivalLane="t_e_0" arrivalPos="136.25" arrivalSpeed="13.58" duration="26.00" routeLength="279.21" waitingTime="0.00" waitingCount="0" stopTime="0.00" timeLoss="5.51" rerouteNo="0" devices="tripinfo_flow03.2 emissions_flow03.2" vType="CarA" speedFactor="1.02" vaporized="">
        <emissions CO_abs="1518.967773" CO2_abs="98819.340607" HC_abs="9.120081" PMx_abs="1.738107" NOx_abs="40.067997" fuel_abs="31518.836570" electricity_abs="0"/>
    </tripinfo>
    <tripinfo id="flow02.3" depart="62.00" departLane="n_t_0" departPos="5.10" departSpeed="0.00" departDelay="0.81" arrival="95.00" arrivalLane="t_w_0" arrivalPos="136.25" arrivalSpeed="14.20" duration="33.00" routeLength="293.40" waitingTime="3.00" waitingCount="1" stopTime="0.00" timeLoss="12.75" rerouteNo="0" devices="tripinfo_flow02.3 emissions_flow02.3" vType="CarA" speedFactor="1.08" vaporized="">
        <emissions CO_abs="2749.676517" CO2_abs="127168.743944" HC_abs="15.453292" PMx_abs="2.489284" NOx_abs="53.542859" fuel_abs="40561.200625" electricity_abs="0"/>
    </tripinfo>
    <tripinfo id="flow09.0" depart="72.00" departLane="w_t_0" departPos="5.10" departSpeed="0.00" departDelay="0.33" arrival="99.00" arrivalLane="t_n_0" arrivalPos="136.25" arrivalSpeed="13.45" duration="27.00" routeLength="279.21" waitingTime="0.00" waitingCount="0" stopTime="0.00" timeLoss="5.49" rerouteNo="0" devices="tripinfo_flow09.0 emissions_flow09.0" vType="CarA" speedFactor="0.99" vaporized="">
        <emissions CO_abs="1555.993076" CO2_abs="98197.503278" HC_abs="9.360003" PMx_abs="1.726759" NOx_abs="40.092051" fuel_abs="31320.526654" electricity_abs="0"/>
    </tripinfo>
    <tripinfo id="flow10.1" depart="29.00" departLane="e_t_0" departPos="5.10" departSpeed="0.00" departDelay="2.78" arrival="100.00" arrivalLane="t_w_0" arrivalPos="136.25" arrivalSpeed="14.81" duration="71.00" routeLength="294.90" waitingTime="41.00" waitingCount="1" stopTime="0.00" timeLoss="51.15" rerouteNo="0" devices="tripinfo_flow10.1 emissions_flow10.1" vType="CarA" speedFactor="1.11" vaporized="">
        <emissions CO_abs="8986.035111" CO2_abs="232077.736857" HC_abs="46.254946" PMx_abs="5.017585" NOx_abs="100.908389" fuel_abs="74024.510192" electricity_abs="0"/>
    </tripinfo>
    <tripinfo id="flow11.1" depart="23.00" departLane="e_t_0" departPos="5.10" departSpeed="0.00" departDelay="0.90" arrival="101.00" arrivalLane="t_s_0" arrivalPos="136.25" arrivalSpeed="12.15" duration="78.00" routeLength="279.21" waitingTime="46.00" waitingCount="1" stopTime="0.00" timeLoss="54.45" rerouteNo="0" devices="tripinfo_flow11.1 emissions_flow11.1" vType="CarA" speedFactor="0.90" vaporized="">
        <emissions CO_abs="9667.818570" CO2_abs="228539.660305" HC_abs="49.342411" PMx_abs="4.892144" NOx_abs="99.332945" fuel_abs="72896.559493" electricity_abs="0"/>
    </tripinfo>
    <tripinfo id="flow07.1" depart="31.00" departLane="w_t_0" departPos="5.10" departSpeed="0.00" departDelay="1.29" arrival="101.00" arrivalLane="t_e_0" arrivalPos="136.25" arrivalSpeed="12.30" duration="70.00" routeLength="294.90" waitingTime="37.00" waitingCount="1" stopTime="0.00" timeLoss="47.16" rerouteNo="0" devices="tripinfo_flow07.1 emissions_flow07.1" vType="CarA" speedFactor="0.96" vaporized="">
        <emissions CO_abs="8156.721115" CO2_abs="209542.687728" HC_abs="41.907448" PMx_abs="4.427539" NOx_abs="90.438221" fuel_abs="66836.774719" electricity_abs="0"/>
    </tripinfo>
    <tripinfo id="flow10.2" depart="34.00" departLane="e_t_0" departPos="5.10" departSpeed="0.00" departDelay="0.37" arrival="101.00" arrivalLane="t_w_0" arrivalPos="136.25" arrivalSpeed="15.23" duration="67.00" routeLength="294.90" waitingTime="38.00" waitingCount="1" stopTime="0.00" timeLoss="48.11" rerouteNo="0" devices="tripinfo_flow10.2 emissions_flow10.2" vType="CarA" speedFactor="1.13" vaporized="">
        <emissions CO_abs="8582.640668" CO2_abs="224605.971801" HC_abs="44.394978" PMx_abs="4.966504" NOx_abs="98.527372" fuel_abs="71641.092239" electricity_abs="0"/>
    </tripinfo>
    <tripinfo id="flow07.2" depart="34.00" departLane="w_t_0" departPos="5.10" departSpeed="0.00" departDelay="3.19" arrival="102.00" arrivalLane="t_e_0" arrivalPos="136.25" arrivalSpeed="14.33" duration="68.00" routeLength="294.90" waitingTime="35.00" waitingCount="1" stopTime="0.00" timeLoss="47.26" rerouteNo="0" devices="tripinfo_flow07.2 emissions_flow07.2" vType="CarA" speedFactor="1.03" vaporized="">
        <emissions CO_abs="8255.602770" CO2_abs="216230.099536" HC_abs="42.614281" PMx_abs="4.692433" NOx_abs="94.325145" fuel_abs="68969.574939" electricity_abs="0"/>
    </tripinfo>
    <tripinfo id="flow11.2" depart="26.00" departLane="e_t_0" departPos="5.10" departSpeed="0.00" departDelay="2.35" arrival="103.00" arrivalLane="t_s_0" arrivalPos="136.25" arrivalSpeed="15.54" duration="77.00" routeLength="279.21" waitingTime="44.00" waitingCount="1" stopTime="0.00" timeLoss="59.32" rerouteNo="0" devices="tripinfo_flow11.2 emissions_flow11.2" vType="CarA" speedFactor="1.21" vaporized="">
        <emissions CO_abs="10024.933942" CO2_abs="252517.130111" HC_abs="51.570407" PMx_abs="5.559328" NOx_abs="110.701228" fuel_abs="80543.986588" electricity_abs="0"/>
    </tripinfo>
    <tripinfo id="flow08.1" depart="8.00" departLane="w_t_0" departPos="5.10" departSpeed="0.00" departDelay="1.77" arrival="108.00" arrivalLane="t_s_0" arrivalPos="136.25" arrivalSpeed="12.26" duration="100.00" routeLength="293.40" waitingTime="59.00" waitingCount="3" stopTime="0.00" timeLoss="75.63" rerouteNo="0" devices="tripinfo_flow08.1 emissions_flow08.1" vType="CarA" speedFactor="0.90" vaporized="">
        <emissions CO_abs="12741.054542" CO2_abs="280647.167298" HC_abs="64.565758" PMx_abs="6.245559" NOx_abs="123.617329" fuel_abs="89517.398633" electricity_abs="0"/>
    </tripinfo>
    <tripinfo id="flow12.0" depart="58.00" departLane="e_t_0" departPos="5.10" departSpeed="0.00" departDelay="0.67" arrival="109.00" arrivalLane="t_n_0" arrivalPos="136.25" arrivalSpeed="10.72" duration="51.00" routeLength="293.40" waitingTime="13.00" waitingCount="2" stopTime="0.00" timeLoss="24.53" rerouteNo="0" devices="tripinfo_flow12.0 emissions_flow12.0" vType="CarA" speedFactor="0.84" vaporized="">
        <emissions CO_abs="4667.235030" CO2_abs="148930.310445" HC_abs="24.687832" PMx_abs="2.882988" NOx_abs="62.807053" fuel_abs="47503.131277" electricity_abs="0"/>
    </tripinfo>
    <tripinfo id="flow03.3" depart="74.00" departLane="n_t_0" departPos="5.10" departSpeed="0.00" departDelay="0.78" arrival="110.00" arrivalLane="t_e_0" arrivalPos="136.25" arrivalSpeed="13.02" duration="36.00" routeLength="279.21" waitingTime="5.00" waitingCount="1" stopTime="0.00" timeLoss="13.41" rerouteNo="0" devices="tripinfo_flow03.3 emissions_flow03.3" vType="CarA" speedFactor="0.95" vaporized="">
        <emissions CO_abs="2850.268059" CO2_abs="127465.958110" HC_abs="15.920043" PMx_abs="2.338381" NOx_abs="52.781662" fuel_abs="40656.237566" electricity_abs="0"/>
    </tripinfo>
    <tripinfo id="flow01.6" depart="86.00" departLane="n_t_0" departPos="5.10" departSpeed="0.00" departDelay="0.34" arrival="110.00" arrivalLane="t_s_0" arrivalPos="136.25" arrivalSpeed="13.71" duration="24.00" routeLength="294.90" waitingTime="0.00" waitingCount="0" stopTime="0.00" timeLoss="4.27" rerouteNo="0" devices="tripinfo_flow01.6 emissions_flow01.6" vType="CarA" speedFactor="1.08" vaporized="">
        <emissions CO_abs="1150.336294" CO2_abs="85835.223765" HC_abs="7.040502" PMx_abs="1.371285" NOx_abs="33.497657" fuel_abs="27377.563835" electricity_abs="0"/>
    </tripinfo>
    <tripinfo id="flow04.5" depart="69.00" departLane="s_t_0" departPos="5.10" departSpeed="0.00" departDelay="0.02" arrival="111.00" arrivalLane="t_n_0" arrivalPos="136.25" arrivalSpeed="12.91" duration="42.00" routeLength="294.90" waitingTime="9.00" waitingCount="1" stopTime="0.00" timeLoss="19.25" rerouteNo="0" devices="tripinfo_flow04.5 emissions_flow04.5" vType="CarA" speedFactor="0.96" vaporized="">
        <emissions CO_abs="3775.667067" CO2_abs="137127.725856" HC_abs="20.338195" PMx_abs="2.741312" NOx_abs="58.261502" fuel_abs="43738.118825" electricity_abs="0"/>
    </tripinfo>
    <tripinfo id="flow03.4" depart="77.00" departLane="n_t_0" departPos="5.10" departSpeed="0.00" departDelay="3.40" arrival="112.00" arrivalLane="t_e_0" arrivalPos="136.25" arrivalSpeed="14.02" duration="35.00" routeLength="279.21" waitingTime="3.00" waitingCount="1" stopTime="0.00" timeLoss="15.23" rerouteNo="0" devices="tripinfo_flow03.4 emissions_flow03.4" vType="CarA" speedFactor="1.10" vaporized="">
        <emissions CO_abs="2888.543654" CO2_abs="135374.663752" HC_abs="16.235007" PMx_abs="2.519400" NOx_abs="56.096262" fuel_abs="43178.659380" electricity_abs="0"/>
    </tripinfo>
    <tripinfo id="flow06.1" depart="76.00" departLane="s_t_0" departPos="5.10" departSpeed="0.00" departDelay="0.59" arrival="116.00" arrivalLane="t_e_0" arrivalPos="136.25" arrivalSpeed="13.00" duration="40.00" routeLength="293.40" waitingTime="5.00" waitingCount="2" stopTime="0.00" timeLoss="17.16" rerouteNo="0" devices="tripinfo_flow06.1 emissions_flow06.1" vType="CarA" speedFactor="0.96" vaporized="">
        <emissions CO_abs="3099.200508" CO2_abs="130304.262875" HC_abs="17.084467" PMx_abs="2.441555" NOx_abs="54.215913" fuel_abs="41561.597806" electricity_abs="0"/>
    </tripinfo>
    <tripinfo id="flow04.6" depart="90.00" departLane="s_t_0" departPos="5.10" departSpeed="0.00" departDelay="0.50" arrival="116.00" arrivalLane="t_n_0" arrivalPos="136.25" arrivalSpeed="12.81" duration="26.00" routeLength="294.90" waitingTime="0.00" waitingCount="0" stopTime="0.00" timeLoss="3.91" rerouteNo="0" devices="tripinfo_flow04.6 emissions_flow04.6" vType="CarA" speedFactor="0.96" vaporized="">
        <emissions CO_abs="1126.275167" CO2_abs="83287.339709" HC_abs="6.979043" PMx_abs="1.277167" NOx_abs="32.396748" fuel_abs="26564.976576" electricity_abs="0"/>
    </tripinfo>
    <tripinfo id="flow01.7" depart="96.00" departLane="n_t_0" departPos="5.10" departSpeed="0.00" departDelay="0.12" arrival="121.00" arrivalLane="t_s_0" arrivalPos="136.25" arrivalSpeed="13.39" duration="25.00" routeLength="294.90" waitingTime="0.00" waitingCount="0" stopTime="0.00" timeLoss="3.89" rerouteNo="0" devices="tripinfo_flow01.7 emissions_flow01.7" vType="CarA" speedFactor="1.04" vaporized="">
        <emissions CO_abs="1180.058389" CO2_abs="82605.789598" HC_abs="7.243173" PMx_abs="1.416037" NOx_abs="33.193914" fuel_abs="26347.456221" electricity_abs="0"/>
    </tripinfo>
    <tripinfo id="flow01.8" depart="99.00" departLane="n_t_0" departPos="5.10" departSpeed="0.00" departDelay="0.43" arrival="122.00" arrivalLane="t_s_0" arrivalPos="136.25" arrivalSpeed="16.24" duration="23.00" routeLength="294.90" waitingTime="0.00" waitingCount="0" stopTime="0.00" timeLoss="5.83" rerouteNo="0" devices="tripinfo_flow01.8 emissions_flow01.8" vType="CarA" speedFactor="1.25" vaporized="">
        <emissions CO_abs="1535.196588" CO2_abs="102091.474589" HC_abs="9.385613" PMx_abs="1.926460" NOx_abs="42.077870" fuel_abs="32562.359123" electricity_abs="0"/>
    </tripinfo>
    <tripinfo id="flow05.5" depart="97.00" departLane="s_t_0" departPos="5.10" departSpeed="0.00" departDelay="0.52" arrival="129.00" arrivalLane="t_w_0" arrivalPos="136.25" arrivalSpeed="10.74" duration="32.00" routeLength="279.21" waitingTime="0.00" waitingCount="0" stopTime="0.00" timeLoss="4.79" rerouteNo="0" devices="tripinfo_flow05.5 emissions_flow05.5" vType="CarA" speedFactor="0.77" vaporized="">
        <emissions CO_abs="1633.790773" CO2_abs="88466.946354" HC_abs="9.502179" PMx_abs="1.541123" NOx_abs="36.368813" fuel_abs="28217.063816" electricity_abs="0"/>
    </tripinfo>
    <tripinfo id="flow05.6" depart="100.00" departLane="s_t_0" departPos="5.10" departSpeed="0.00" departDelay="3.44" arrival="131.00" arrivalLane="t_w_0" arrivalPos="136.25" arrivalSpeed="13.53" duration="31.00" routeLength="279.21" waitingTime="0.00" waitingCount="0" stopTime="0.00" timeLoss="10.70" rerouteNo="0" devices="tripinfo_flow05.6 emissions_flow05.6" vType="CarA" speedFactor="1.07" vaporized="">
        <emissions CO_abs="1914.335160" CO2_abs="107545.299989" HC_abs="11.261688" PMx_abs="2.048739" NOx_abs="45.264668" fuel_abs="34301.981164" electricity_abs="0"/>
    </tripinfo>
    <tripinfo id="flow04.7" depart="106.00" departLane="s_t_0" departPos="5.10" departSpeed="0.00" departDelay="7.46" arrival="131.00" arrivalLane="t_n_0" arrivalPos="136.25" arrivalSpeed="13.42" duration="25.00" routeLength="294.90" waitingTime="0.00" waitingCount="0" stopTime="0.00" timeLoss="3.84" rerouteNo="0" devices="tripinfo_flow04.7 emissions_flow04.7" vType="CarA" speedFactor="1.03" vaporized="">
        <emissions CO_abs="1039.692318" CO2_abs="80530.816640" HC_abs="6.454192" PMx_abs="1.232842" NOx_abs="31.117493" fuel_abs="25685.739469" electricity_abs="0"/>
    </tripinfo>
    <tripinfo id="flow05.7" depart="103.00" departLane="s_t_0" departPos="5.10" departSpeed="0.00" departDelay="5.15" arrival="132.00" arrivalLane="t_w_0" arrivalPos="136.25" arrivalSpeed="14.59" duration="29.00" routeLength="279.21" waitingTime="0.00" waitingCount="0" stopTime="0.00" timeLoss="8.91" rerouteNo="0" devices="tripinfo_flow05.7 emissions_flow05.7" vType="CarA" speedFactor="1.06" vaporized="">