<?xml version="1.0" encoding="UTF-8"?>

<!-- generated on 2024-07-08 17:38:45 by Eclipse SUMO libsumo Version 1.20.0
<configuration xmlns:xsi="http://www.w3.org/2001/XMLSchema-instance" xsi:noNamespaceSchemaLocation="http://sumo.dlr.de/xsd/libsumoConfiguration.xsd">

    <input>
        <net-file value="D:\trg1vr\sumo-rl\sumo_rl\nets\2way-single-intersection\2-stage.xml"/>
        <route-files value="autodl-tmp\outputs\2_0.7-0.7-0.7-0.7\output.rou.xml"/>
    </input>

    <output>
        <tripinfo-output value="autodl-tmp\outputs\2_0.7-0.7-0.7-0.7\tripinfos-4.xml"/>
    </output>

    <processing>
        <time-to-teleport value="-1"/>
        <waiting-time-memory value="1000"/>
        <max-depart-delay value="-1"/>
    </processing>

    <emissions>
        <device.emissions.probability value="1.0"/>
    </emissions>

    <random_number>
        <seed value="14"/>
    </random_number>

</configuration>
-->

<tripinfos xmlns:xsi="http://www.w3.org/2001/XMLSchema-instance" xsi:noNamespaceSchemaLocation="http://sumo.dlr.de/xsd/tripinfo_file.xsd">
    <tripinfo id="flow11.0" depart="1.00" departLane="e_t_0" departPos="5.10" departSpeed="0.00" departDelay="0.27" arrival="28.00" arrivalLane="t_s_0" arrivalPos="136.25" arrivalSpeed="13.14" duration="27.00" routeLength="279.21" waitingTime="0.00" waitingCount="0" stopTime="0.00" timeLoss="5.26" rerouteNo="0" devices="tripinfo_flow11.0 emissions_flow11.0" vType="CarA" speedFactor="1.00" vaporized="">
        <emissions CO_abs="1640.901947" CO2_abs="96822.988956" HC_abs="9.766248" PMx_abs="1.832088" NOx_abs="40.458790" fuel_abs="30882.037493" electricity_abs="0"/>
    </tripinfo>
    <tripinfo id="flow11.1" depart="13.00" departLane="e_t_0" departPos="5.10" departSpeed="0.00" departDelay="0.96" arrival="42.00" arrivalLane="t_s_0" arrivalPos="136.25" arrivalSpeed="11.50" duration="29.00" routeLength="279.21" waitingTime="0.00" waitingCount="0" stopTime="0.00" timeLoss="5.42" rerouteNo="0" devices="tripinfo_flow11.1 emissions_flow11.1" vType="CarA" speedFactor="0.89" vaporized="">
        <emissions CO_abs="1496.502375" CO2_abs="87337.494156" HC_abs="8.808251" PMx_abs="1.489568" NOx_abs="35.438398" fuel_abs="27856.798718" electricity_abs="0"/>
    </tripinfo>
    <tripinfo id="flow10.0" depart="19.00" departLane="e_t_0" departPos="5.10" departSpeed="0.00" departDelay="0.78" arrival="43.00" arrivalLane="t_w_0" arrivalPos="136.25" arrivalSpeed="14.63" duration="24.00" routeLength="294.90" waitingTime="0.00" waitingCount="0" stopTime="0.00" timeLoss="3.83" rerouteNo="0" devices="tripinfo_flow10.0 emissions_flow10.0" vType="CarA" speedFactor="1.07" vaporized="">
        <emissions CO_abs="1151.260878" CO2_abs="85995.437002" HC_abs="7.077700" PMx_abs="1.409451" NOx_abs="33.865727" fuel_abs="27428.621315" electricity_abs="0"/>
    </tripinfo>
    <tripinfo id="flow09.0" depart="20.00" departLane="w_t_0" departPos="5.10" departSpeed="0.00" departDelay="0.14" arrival="45.00" arrivalLane="t_n_0" arrivalPos="136.25" arrivalSpeed="13.64" duration="25.00" routeLength="279.21" waitingTime="0.00" waitingCount="0" stopTime="0.00" timeLoss="4.70" rerouteNo="0" devices="tripinfo_flow09.0 emissions_flow09.0" vType="CarA" speedFactor="1.05" vaporized="">
        <emissions CO_abs="1510.122915" CO2_abs="100505.850432" HC_abs="9.162040" PMx_abs="1.835617" NOx_abs="41.289870" fuel_abs="32056.659351" electricity_abs="0"/>
    </tripinfo>
    <tripinfo id="flow11.2" depart="22.00" departLane="e_t_0" departPos="5.10" departSpeed="0.00" departDelay="3.46" arrival="50.00" arrivalLane="t_s_0" arrivalPos="136.25" arrivalSpeed="11.63" duration="28.00" routeLength="279.21" waitingTime="0.00" waitingCount="0" stopTime="0.00" timeLoss="4.55" rerouteNo="0" devices="tripinfo_flow11.2 emissions_flow11.2" vType="CarA" speedFactor="0.90" vaporized="">
        <emissions CO_abs="1420.861101" CO2_abs="88432.269742" HC_abs="8.473687" PMx_abs="1.522687" NOx_abs="35.952580" fuel_abs="28205.903976" electricity_abs="0"/>
    </tripinfo>
    <tripinfo id="flow09.1" depart="23.00" departLane="w_t_0" departPos="5.10" departSpeed="0.00" departDelay="2.55" arrival="51.00" arrivalLane="t_n_0" arrivalPos="136.25" arrivalSpeed="12.70" duration="28.00" routeLength="279.21" waitingTime="0.00" waitingCount="0" stopTime="0.00" timeLoss="4.85" rerouteNo="0" devices="tripinfo_flow09.1 emissions_flow09.1" vType="CarA" speedFactor="0.94" vaporized="">
        <emissions CO_abs="1578.944290" CO2_abs="96641.783488" HC_abs="9.431546" PMx_abs="1.698700" NOx_abs="39.548171" fuel_abs="30824.347436" electricity_abs="0"/>
    </tripinfo>
    <tripinfo id="flow12.0" depart="26.00" departLane="e_t_0" departPos="5.10" departSpeed="0.00" departDelay="0.49" arrival="53.00" arrivalLane="t_n_0" arrivalPos="136.25" arrivalSpeed="14.23" duration="27.00" routeLength="293.40" waitingTime="0.00" waitingCount="0" stopTime="0.00" timeLoss="6.09" rerouteNo="0" devices="tripinfo_flow12.0 emissions_flow12.0" vType="CarA" speedFactor="1.04" vaporized="">
        <emissions CO_abs="1676.284576" CO2_abs="110507.095160" HC_abs="10.116237" PMx_abs="1.919129" NOx_abs="44.625175" fuel_abs="35246.716855" electricity_abs="0"/>
    </tripinfo>
    <tripinfo id="flow11.3" depart="30.00" departLane="e_t_0" departPos="5.10" departSpeed="0.00" departDelay="0.98" arrival="55.00" arrivalLane="t_s_0" arrivalPos="136.25" arrivalSpeed="13.46" duration="25.00" routeLength="279.21" waitingTime="0.00" waitingCount="0" stopTime="0.00" timeLoss="4.48" rerouteNo="0" devices="tripinfo_flow11.3 emissions_flow11.3" vType="CarA" speedFactor="1.03" vaporized="">
        <emissions CO_abs="1435.836431" CO2_abs="97730.815804" HC_abs="8.748636" PMx_abs="1.739164" NOx_abs="39.619980" fuel_abs="31171.594303" electricity_abs="0"/>
    </tripinfo>
    <tripinfo id="flow05.0" depart="3.00" departLane="s_t_0" departPos="5.10" departSpeed="0.00" departDelay="0.65" arrival="59.00" arrivalLane="t_w_0" arrivalPos="136.25" arrivalSpeed="13.95" duration="56.00" routeLength="279.21" waitingTime="28.00" waitingCount="1" stopTime="0.00" timeLoss="36.95" rerouteNo="0" devices="tripinfo_flow05.0 emissions_flow05.0" vType="CarA" speedFactor="1.09" vaporized="">
        <emissions CO_abs="6818.299462" CO2_abs="193797.975475" HC_abs="35.552075" PMx_abs="4.147135" NOx_abs="83.949655" fuel_abs="61814.246337" electricity_abs="0"/>
    </tripinfo>
    <tripinfo id="flow03.0" depart="5.00" departLane="n_t_0" departPos="5.10" departSpeed="0.00" departDelay="0.64" arrival="60.00" arrivalLane="t_e_0" arrivalPos="136.25" arrivalSpeed="11.94" duration="55.00" routeLength="279.21" waitingTime="23.00" waitingCount="1" stopTime="0.00" timeLoss="32.74" rerouteNo="0" devices="tripinfo_flow03.0 emissions_flow03.0" vType="CarA" speedFactor="0.94" vaporized="">
        <emissions CO_abs="5960.610508" CO2_abs="172545.051514" HC_abs="31.121925" PMx_abs="3.494279" NOx_abs="73.592616" fuel_abs="55035.521144" electricity_abs="0"/>
    </tripinfo>
    <tripinfo id="flow04.0" depart="6.00" departLane="s_t_0" departPos="5.10" departSpeed="0.00" departDelay="1.26" arrival="61.00" arrivalLane="t_n_0" arrivalPos="136.25" arrivalSpeed="13.26" duration="55.00" routeLength="294.90" waitingTime="24.00" waitingCount="1" stopTime="0.00" timeLoss="33.42" rerouteNo="0" devices="tripinfo_flow04.0 emissions_flow04.0" vType="CarA" speedFactor="1.01" vaporized="">
        <emissions CO_abs="6016.926926" CO2_abs="177601.782508" HC_abs="31.434864" PMx_abs="3.584539" NOx_abs="75.407197" fuel_abs="56648.376325" electricity_abs="0"/>
    </tripinfo>
    <tripinfo id="flow05.1" depart="22.00" departLane="s_t_0" departPos="5.10" departSpeed="0.00" departDelay="0.24" arrival="61.00" arrivalLane="t_w_0" arrivalPos="136.25" arrivalSpeed="16.44" duration="39.00" routeLength="279.21" waitingTime="11.00" waitingCount="1" stopTime="0.00" timeLoss="21.47" rerouteNo="0" devices="tripinfo_flow05.1 emissions_flow05.1" vType="CarA" speedFactor="1.20" vaporized="">
        <emissions CO_abs="4485.727988" CO2_abs="171718.326641" HC_abs="24.379555" PMx_abs="3.545089" NOx_abs="73.310222" fuel_abs="54770.824891" electricity_abs="0"/>
    </tripinfo>
    <tripinfo id="flow01.0" depart="8.00" departLane="n_t_0" departPos="5.10" departSpeed="0.00" departDelay="0.44" arrival="62.00" arrivalLane="t_s_0" arrivalPos="136.25" arrivalSpeed="10.97" duration="54.00" routeLength="294.90" waitingTime="20.00" waitingCount="1" stopTime="0.00" timeLoss="29.22" rerouteNo="0" devices="tripinfo_flow01.0 emissions_flow01.0" vType="CarA" speedFactor="0.86" vaporized="">
        <emissions CO_abs="5380.144309" CO2_abs="157168.893528" HC_abs="28.153723" PMx_abs="3.112372" NOx_abs="66.714073" fuel_abs="50131.135442" electricity_abs="0"/>
    </tripinfo>
    <tripinfo id="flow04.1" depart="12.00" departLane="s_t_0" departPos="5.10" departSpeed="0.00" departDelay="0.24" arrival="62.00" arrivalLane="t_n_0" arrivalPos="136.25" arrivalSpeed="16.21" duration="50.00" routeLength="294.90" waitingTime="21.00" waitingCount="1" stopTime="0.00" timeLoss="32.29" rerouteNo="0" devices="tripinfo_flow04.1 emissions_flow04.1" vType="CarA" speedFactor="1.21" vaporized="">
        <emissions CO_abs="5881.128231" CO2_abs="189674.325162" HC_abs="31.203286" PMx_abs="4.001221" NOx_abs="81.788747" fuel_abs="60498.521706" electricity_abs="0"/>
    </tripinfo>
    <tripinfo id="flow03.1" depart="22.00" departLane="n_t_0" departPos="5.10" departSpeed="0.00" departDelay="0.52" arrival="62.00" arrivalLane="t_e_0" arrivalPos="136.25" arrivalSpeed="13.33" duration="40.00" routeLength="279.21" waitingTime="8.00" waitingCount="1" stopTime="0.00" timeLoss="18.88" rerouteNo="0" devices="tripinfo_flow03.1 emissions_flow03.1" vType="CarA" speedFactor="0.99" vaporized="">
        <emissions CO_abs="3611.474011" CO2_abs="132496.827878" HC_abs="19.520443" PMx_abs="2.594095" NOx_abs="55.963198" fuel_abs="42261.096100" electricity_abs="0"/>
    </tripinfo>
    <tripinfo id="flow01.1" depart="15.00" departLane="n_t_0" departPos="5.10" departSpeed="0.00" departDelay="0.41" arrival="64.00" arrivalLane="t_s_0" arrivalPos="136.25" arrivalSpeed="15.19" duration="49.00" routeLength="294.90" waitingTime="16.00" waitingCount="1" stopTime="0.00" timeLoss="29.88" rerouteNo="0" devices="tripinfo_flow01.1 emissions_flow01.1" vType="CarA" speedFactor="1.14" vaporized="">
        <emissions CO_abs="5212.087418" CO2_abs="177390.211180" HC_abs="27.871310" PMx_abs="3.647820" NOx_abs="76.117172" fuel_abs="56580.288475" electricity_abs="0"/>
    </tripinfo>
    <tripinfo id="flow03.2" depart="29.00" departLane="n_t_0" departPos="5.10" departSpeed="0.00" departDelay="0.81" arrival="64.00" arrivalLane="t_e_0" arrivalPos="136.25" arrivalSpeed="14.99" duration="35.00" routeLength="279.21" waitingTime="4.00" waitingCount="1" stopTime="0.00" timeLoss="15.62" rerouteNo="0" devices="tripinfo_flow03.2 emissions_flow03.2" vType="CarA" speedFactor="1.08" vaporized="">
        <emissions CO_abs="3012.351869" CO2_abs="136085.259197" HC_abs="16.932864" PMx_abs="2.638653" NOx_abs="57.233387" fuel_abs="43405.258005" electricity_abs="0"/>
    </tripinfo>
    <tripinfo id="flow01.2" depart="18.00" departLane="n_t_0" departPos="5.10" departSpeed="0.00" departDelay="0.97" arrival="66.00" arrivalLane="t_s_0" arrivalPos="136.25" arrivalSpeed="11.66" duration="48.00" routeLength="294.90" waitingTime="13.00" waitingCount="1" stopTime="0.00" timeLoss="24.55" rerouteNo="0" devices="tripinfo_flow01.2 emissions_flow01.2" vType="CarA" speedFactor="0.92" vaporized="">
        <emissions CO_abs="4455.674742" CO2_abs="150335.638391" HC_abs="23.794186" PMx_abs="2.951874" NOx_abs="63.657826" fuel_abs="47951.165495" electricity_abs="0"/>
    </tripinfo>
    <tripinfo id="flow04.2" depart="29.00" departLane="s_t_0" departPos="5.10" departSpeed="0.00" departDelay="0.10" arrival="66.00" arrivalLane="t_n_0" arrivalPos="136.25" arrivalSpeed="12.62" duration="37.00" routeLength="294.90" waitingTime="4.00" waitingCount="1" stopTime="0.00" timeLoss="13.26" rerouteNo="0" devices="tripinfo_flow04.2 emissions_flow04.2" vType="CarA" speedFactor="0.92" vaporized="">
        <emissions CO_abs="2645.594075" CO2_abs="118645.095831" HC_abs="14.769246" PMx_abs="2.141646" NOx_abs="48.907151" fuel_abs="37842.796181" electricity_abs="0"/>
    </tripinfo>
    <tripinfo id="flow01.3" depart="25.00" departLane="n_t_0" departPos="5.10" departSpeed="0.00" departDelay="0.86" arrival="68.00" arrivalLane="t_s_0" arrivalPos="136.25" arrivalSpeed="13.32" duration="43.00" routeLength="294.90" waitingTime="8.00" waitingCount="1" stopTime="0.00" timeLoss="20.40" rerouteNo="0" devices="tripinfo_flow01.3 emissions_flow01.3" vType="CarA" speedFactor="0.97" vaporized="">
        <emissions CO_abs="3672.421023" CO2_abs="146005.812312" HC_abs="20.071232" PMx_abs="2.780894" NOx_abs="61.131896" fuel_abs="46569.806360" electricity_abs="0"/>
    </tripinfo>
    <tripinfo id="flow03.3" depart="32.00" departLane="n_t_0" departPos="5.10" departSpeed="0.00" departDelay="2.63" arrival="68.00" arrivalLane="t_e_0" arrivalPos="136.25" arrivalSpeed="12.55" duration="36.00" routeLength="279.21" waitingTime="2.00" waitingCount="1" stopTime="0.00" timeLoss="13.84" rerouteNo="0" devices="tripinfo_flow03.3 emissions_flow03.3" vType="CarA" speedFactor="0.95" vaporized="">
        <emissions CO_abs="2638.585640" CO2_abs="117872.632772" HC_abs="14.673798" PMx_abs="2.155637" NOx_abs="48.757987" fuel_abs="37596.375901" electricity_abs="0"/>
    </tripinfo>
    <tripinfo id="flow04.3" depart="41.00" departLane="s_t_0" departPos="5.10" departSpeed="0.00" departDelay="0.02" arrival="68.00" arrivalLane="t_n_0" arrivalPos="136.25" arrivalSpeed="12.70" duration="27.00" routeLength="294.90" waitingTime="0.00" waitingCount="0" stopTime="0.00" timeLoss="4.14" rerouteNo="0" devices="tripinfo_flow04.3 emissions_flow04.3" vType="CarA" speedFactor="0.95" vaporized="">
        <emissions CO_abs="1080.118684" CO2_abs="80253.563807" HC_abs="6.638498" PMx_abs="1.167228" NOx_abs="30.748457" fuel_abs="25597.405648" electricity_abs="0"/>
    </tripinfo>
    <tripinfo id="flow01.4" depart="42.00" departLane="n_t_0" departPos="5.10" departSpeed="0.00" departDelay="0.13" arrival="69.00" arrivalLane="t_s_0" arrivalPos="136.25" arrivalSpeed="14.93" duration="27.00" routeLength="294.90" waitingTime="0.00" waitingCount="0" stopTime="0.00" timeLoss="7.81" rerouteNo="0" devices="tripinfo_flow01.4 emissions_flow01.4" vType="CarA" speedFactor="1.12" vaporized="">
        <emissions CO_abs="1795.783613" CO2_abs="117020.938676" HC_abs="10.944360" PMx_abs="2.145997" NOx_abs="48.347105" fuel_abs="37324.212512" electricity_abs="0"/>
    </tripinfo>
    <tripinfo id="flow01.5" depart="45.00" departLane="n_t_0" departPos="5.10" departSpeed="0.00" departDelay="0.58" arrival="71.00" arrivalLane="t_s_0" arrivalPos="136.25" arrivalSpeed="12.89" duration="26.00" routeLength="294.90" waitingTime="0.00" waitingCount="0" stopTime="0.00" timeLoss="4.53" rerouteNo="0" devices="tripinfo_flow01.5 emissions_flow01.5" vType="CarA" speedFactor="1.00" vaporized="">
        <emissions CO_abs="1223.664907" CO2_abs="86949.644532" HC_abs="7.536978" PMx_abs="1.419750" NOx_abs="34.401645" fuel_abs="27733.020942" electricity_abs="0"/>
    </tripinfo>
    <tripinfo id="flow02.0" depart="2.00" departLane="n_t_0" departPos="5.10" departSpeed="0.00" departDelay="0.62" arrival="74.00" arrivalLane="t_w_0" arrivalPos="136.25" arrivalSpeed="15.14" duration="72.00" routeLength="293.40" waitingTime="39.00" waitingCount="2" stopTime="0.00" timeLoss="51.77" rerouteNo="0" devices="tripinfo_flow02.0 emissions_flow02.0" vType="CarA" speedFactor="1.12" vaporized="">
        <emissions CO_abs="9094.379440" CO2_abs="238853.711311" HC_abs="46.888310" PMx_abs="5.114472" NOx_abs="103.410689" fuel_abs="76185.761147" electricity_abs="0"/>
    </tripinfo>
    <tripinfo id="flow06.0" depart="18.00" departLane="s_t_0" departPos="5.10" departSpeed="0.00" departDelay="0.98" arrival="75.00" arrivalLane="t_e_0" arrivalPos="136.25" arrivalSpeed="13.08" duration="57.00" routeLength="293.40" waitingTime="21.00" waitingCount="2" stopTime="0.00" timeLoss="34.81" rerouteNo="0" devices="tripinfo_flow06.0 emissions_flow06.0" vType="CarA" speedFactor="1.00" vaporized="">
        <emissions CO_abs="6027.878364" CO2_abs="180802.279077" HC_abs="31.681972" PMx_abs="3.713244" NOx_abs="77.504299" fuel_abs="57669.074799" electricity_abs="0"/>
    </tripinfo>
    <tripinfo id="flow11.4" depart="32.00" departLane="e_t_0" departPos="5.10" departSpeed="0.00" departDelay="2.83" arrival="78.00" arrivalLane="t_s_0" arrivalPos="136.25" arrivalSpeed="13.39" duration="46.00" routeLength="279.21" waitingTime="14.00" waitingCount="1" stopTime="0.00" timeLoss="24.68" rerouteNo="0" devices="tripinfo_flow11.4 emissions_flow11.4" vType="CarA" speedFactor="1.02" vaporized="">
        <emissions CO_abs="4561.339958" CO2_abs="153636.798641" HC_abs="24.217531" PMx_abs="3.027658" NOx_abs="64.670108" fuel_abs="49004.105904" electricity_abs="0"/>
    </tripinfo>
    <tripinfo id="flow09.2" depart="53.00" departLane="w_t_0" departPos="5.10" departSpeed="0.00" departDelay="0.56" arrival="79.00" arrivalLane="t_n_0" arrivalPos="136.25" arrivalSpeed="12.96" duration="26.00" routeLength="279.21" waitingTime="0.00" waitingCount="0" stopTime="0.00" timeLoss="5.06" rerouteNo="0" devices="tripinfo_flow09.2 emissions_flow09.2" vType="CarA" speedFactor="1.00" vaporized="">
        <emissions CO_abs="1457.425674" CO2_abs="95554.483320" HC_abs="8.779303" PMx_abs="1.681664" NOx_abs="38.897085" fuel_abs="30477.485712" electricity_abs="0"/>
    </tripinfo>
    <tripinfo id="flow07.0" depart="56.00" departLane="w_t_0" departPos="5.10" departSpeed="0.00" departDelay="1.20" arrival="79.00" arrivalLane="t_e_0" arrivalPos="136.25" arrivalSpeed="14.75" duration="23.00" routeLength="294.90" waitingTime="0.00" waitingCount="0" stopTime="0.00" timeLoss="3.85" rerouteNo="0" devices="tripinfo_flow07.0 emissions_flow07.0" vType="CarA" speedFactor="1.11" vaporized="">
        <emissions CO_abs="1115.136482" CO2_abs="85134.247262" HC_abs="6.777776" PMx_abs="1.352819" NOx_abs="32.856755" fuel_abs="27153.968780" electricity_abs="0"/>
    </tripinfo>
    <tripinfo id="flow11.5" depart="36.00" departLane="e_t_0" departPos="5.10" departSpeed="0.00" departDelay="2.01" arrival="80.00" arrivalLane="t_s_0" arrivalPos="136.25" arrivalSpeed="13.68" duration="44.00" routeLength="279.21" waitingTime="13.00" waitingCount="1" stopTime="0.00" timeLoss="22.54" rerouteNo="0" devices="tripinfo_flow11.5 emissions_flow11.5" vType="CarA" speedFactor="1.00" vaporized="">
        <emissions CO_abs="4388.219661" CO2_abs="152427.915892" HC_abs="23.429895" PMx_abs="2.976913" NOx_abs="64.168524" fuel_abs="48618.457098" electricity_abs="0"/>
    </tripinfo>
    <tripinfo id="flow10.1" depart="39.00" departLane="e_t_0" departPos="5.10" departSpeed="0.00" departDelay="4.92" arrival="80.00" arrivalLane="t_w_0" arrivalPos="136.25" arrivalSpeed="11.59" duration="41.00" routeLength="294.90" waitingTime="8.00" waitingCount="1" stopTime="0.00" timeLoss="16.90" rerouteNo="0" devices="tripinfo_flow10.1 emissions_flow10.1" vType="CarA" speedFactor="0.89" vaporized="">
        <emissions CO_abs="3396.275996" CO2_abs="129474.619104" HC_abs="18.470704" PMx_abs="2.435300" NOx_abs="54.059230" fuel_abs="41297.166548" electricity_abs="0"/>
    </tripinfo>
    <tripinfo id="flow10.2" depart="42.00" departLane="e_t_0" departPos="5.10" departSpeed="0.00" departDelay="7.64" arrival="82.00" arrivalLane="t_w_0" arrivalPos="136.25" arrivalSpeed="13.14" duration="40.00" routeLength="294.90" waitingTime="6.00" waitingCount="1" stopTime="0.00" timeLoss="16.96" rerouteNo="0" devices="tripinfo_flow10.2 emissions_flow10.2" vType="CarA" speedFactor="0.95" vaporized="">
        <emissions CO_abs="3512.655925" CO2_abs="143375.438194" HC_abs="19.318063" PMx_abs="2.746351" NOx_abs="60.196974" fuel_abs="45730.744824" electricity_abs="0"/>
    </tripinfo>
    <tripinfo id="flow08.0" depart="33.00" departLane="w_t_0" departPos="5.10" departSpeed="0.00" departDelay="0.73" arrival="87.00" arrivalLane="t_s_0" arrivalPos="136.25" arrivalSpeed="11.86" duration="54.00" routeLength="293.40" waitingTime="19.00" waitingCount="2" stopTime="0.00" timeLoss="30.21" rerouteNo="0" devices="tripinfo_flow08.0 emissions_flow08.0" vType="CarA" speedFactor="0.92" vaporized="">
        <emissions CO_abs="5355.605923" CO2_abs="166023.992582" HC_abs="28.162051" PMx_abs="3.226011" NOx_abs="69.810252" fuel_abs="52955.462880" electricity_abs="0"/>
    </tripinfo>
    <tripinfo id="flow03.4" depart="47.00" departLane="n_t_0" departPos="5.10" departSpeed="0.00" departDelay="0.97" arrival="87.00" arrivalLane="t_e_0" arrivalPos="136.25" arrivalSpeed="12.90" duration="40.00" routeLength="279.21" waitingTime="9.00" waitingCount="1" stopTime="0.00" timeLoss="18.24" rerouteNo="0" devices="tripinfo_flow03.4 emissions_flow03.4" vType="CarA" speedFactor="0.96" vaporized="">
        <emissions CO_abs="3594.776194" CO2_abs="134242.108781" HC_abs="19.418595" PMx_abs="2.567130" NOx_abs="56.092522" fuel_abs="42817.807522" electricity_abs="0"/>
    </tripinfo>
    <tripinfo id="flow12.1" depart="51.00" departLane="e_t_0" departPos="5.10" departSpeed="0.00" departDelay="4.77" arrival="87.00" arrivalLane="t_n_0" arrivalPos="136.25" arrivalSpeed="11.07" duration="36.00" routeLength="293.40" waitingTime="0.00" waitingCount="0" stopTime="0.00" timeLoss="10.18" rerouteNo="0" devices="tripinfo_flow12.1 emissions_flow12.1" vType="CarA" speedFactor="0.86" vaporized="">
        <emissions CO_abs="2149.297321" CO2_abs="104312.938056" HC_abs="12.218667" PMx_abs="1.838522" NOx_abs="42.864943" fuel_abs="33271.367396" electricity_abs="0"/>
    </tripinfo>
    <tripinfo id="flow05.2" depart="48.00" departLane="s_t_0" departPos="5.10" departSpeed="0.00" departDelay="0.50" arrival="89.00" arrivalLane="t_w_0" arrivalPos="136.25" arrivalSpeed="11.55" duration="41.00" routeLength="279.21" waitingTime="9.00" waitingCount="1" stopTime="0.00" timeLoss="15.99" rerouteNo="0" devices="tripinfo_flow05.2 emissions_flow05.2" vType="CarA" speedFactor="0.85" vaporized="">
        <emissions CO_abs="3336.933408" CO2_abs="124394.786536" HC_abs="18.093776" PMx_abs="2.308884" NOx_abs="51.852445" fuel_abs="39676.979135" electricity_abs="0"/>
    </tripinfo>
    <tripinfo id="flow04.4" depart="55.00" departLane="s_t_0" departPos="5.10" departSpeed="0.00" departDelay="0.34" arrival="89.00" arrivalLane="t_n_0" arrivalPos="136.25" arrivalSpeed="14.43" duration="34.00" routeLength="294.90" waitingTime="1.00" waitingCount="1" stopTime="0.00" timeLoss="13.99" rerouteNo="0" devices="tripinfo_flow04.4 emissions_flow04.4" vType="CarA" speedFactor="1.08" vaporized="">
        <emissions CO_abs="2771.167416" CO2_abs="131209.792887" HC_abs="15.480026" PMx_abs="2.435351" NOx_abs="54.132725" fuel_abs="41850.222014" electricity_abs="0"/>
    </tripinfo>
    <tripinfo id="flow03.5" depart="50.00" departLane="n_t_0" departPos="5.10" departSpeed="0.00" departDelay="2.55" arrival="90.00" arrivalLane="t_e_0" arrivalPos="136.25" arrivalSpeed="12.29" duration="40.00" routeLength="279.21" waitingTime="8.00" waitingCount="1" stopTime="0.00" timeLoss="18.17" rerouteNo="0" devices="tripinfo_flow03.5 emissions_flow03.5" vType="CarA" speedFactor="0.95" vaporized="">
        <emissions CO_abs="3512.373569" CO2_abs="128971.012676" HC_abs="18.871499" PMx_abs="2.430355" NOx_abs="53.738725" fuel_abs="41136.609588" electricity_abs="0"/>
    </tripinfo>
    <tripinfo id="flow01.6" depart="53.00" departLane="n_t_0" departPos="5.10" departSpeed="0.00" departDelay="0.12" arrival="90.00" arrivalLane="t_s_0" arrivalPos="136.25" arrivalSpeed="12.98" duration="37.00" routeLength="294.90" waitingTime="4.00" waitingCount="1" stopTime="0.00" timeLoss="13.55" rerouteNo="0" devices="tripinfo_flow01.6 emissions_flow01.6" vType="CarA" speedFactor="0.94" vaporized="">
        <emissions CO_abs="2799.371642" CO2_abs="120858.481655" HC_abs="15.559054" PMx_abs="2.260804" NOx_abs="50.401650" fuel_abs="38548.741704" electricity_abs="0"/>
    </tripinfo>
    <tripinfo id="flow04.5" depart="60.00" departLane="s_t_0" departPos="5.10" departSpeed="0.00" departDelay="0.57" arrival="92.00" arrivalLane="t_n_0" arrivalPos="136.25" arrivalSpeed="12.38" duration="32.00" routeLength="294.90" waitingTime="0.00" waitingCount="0" stopTime="0.00" timeLoss="8.41" rerouteNo="0" devices="tripinfo_flow04.5 emissions_flow04.5" vType="CarA" speedFactor="0.90" vaporized="">
        <emissions CO_abs="1938.474923" CO2_abs="105797.239772" HC_abs="11.310620" PMx_abs="1.915162" NOx_abs="43.787534" fuel_abs="33744.586725" electricity_abs="0"/>
    </tripinfo>
    <tripinfo id="flow03.6" depart="59.00" departLane="n_t_0" departPos="5.10" departSpeed="0.00" departDelay="0.93" arrival="93.00" arrivalLane="t_e_0" arrivalPos="136.25" arrivalSpeed="13.07" duration="34.00" routeLength="279.21" waitingTime="0.00" waitingCount="0" stopTime="0.00" timeLoss="11.28" rerouteNo="0" devices="tripinfo_flow03.6 emissions_flow03.6" vType="CarA" speedFactor="0.94" vaporized="">
        <emissions CO_abs="2319.571122" CO2_abs="115381.442926" HC_abs="13.147654" PMx_abs="2.081314" NOx_abs="47.544788" fuel_abs="36801.656614" electricity_abs="0"/>
    </tripinfo>
    <tripinfo id="flow03.7" depart="64.00" departLane="n_t_0" departPos="5.10" departSpeed="0.00" departDelay="0.33" arrival="95.00" arrivalLane="t_e_0" arrivalPos="136.25" arrivalSpeed="12.14" duration="31.00" routeLength="279.21" waitingTime="0.00" waitingCount="0" stopTime="0.00" timeLoss="8.82" rerouteNo="0" devices="tripinfo_flow03.7 emissions_flow03.7" vType="CarA" speedFactor="0.96" vaporized="">
        <emissions CO_abs="1786.015491" CO2_abs="98646.043161" HC_abs="10.424758" PMx_abs="1.725817" NOx_abs="40.400613" fuel_abs="31463.730421" electricity_abs="0"/>
    </tripinfo>
    <tripinfo id="flow05.3" depart="71.00" departLane="s_t_0" departPos="5.10" departSpeed="0.00" departDelay="0.51" arrival="96.00" arrivalLane="t_w_0" arrivalPos="136.25" arrivalSpeed="14.83" duration="25.00" routeLength="279.21" waitingTime="0.00" waitingCount="0" stopTime="0.00" timeLoss="5.26" rerouteNo="0" devices="tripinfo_flow05.3 emissions_flow05.3" vType="CarA" speedFactor="1.10" vaporized="">
        <emissions CO_abs="1684.695282" CO2_abs="104040.537948" HC_abs="10.007081" PMx_abs="1.944262" NOx_abs="42.678454" fuel_abs="33184.086189" electricity_abs="0"/>
    </tripinfo>
    <tripinfo id="flow06.1" depart="36.00" departLane="s_t_0" departPos="5.10" departSpeed="0.00" departDelay="0.80" arrival="97.00" arrivalLane="t_e_0" arrivalPos="136.25" arrivalSpeed="14.21" duration="61.00" routeLength="293.40" waitingTime="27.00" waitingCount="3" stopTime="0.00" timeLoss="39.96" rerouteNo="0" devices="tripinfo_flow06.1 emissions_flow06.1" vType="CarA" speedFactor="1.06" vaporized="">
        <emissions CO_abs="7036.653661" CO2_abs="196318.920599" HC_abs="36.553562" PMx_abs="4.117437" NOx_abs="84.477596" fuel_abs="62618.511725" electricity_abs="0"/>
    </tripinfo>
    <tripinfo id="flow02.1" depart="21.00" departLane="n_t_0" departPos="5.10" departSpeed="0.00" departDelay="0.28" arrival="100.00" arrivalLane="t_w_0" arrivalPos="136.25" arrivalSpeed="14.51" duration="79.00" routeLength="293.40" waitingTime="42.00" waitingCount="4" stopTime="0.00" timeLoss="58.62" rerouteNo="0" devices="tripinfo_flow02.1 emissions_flow02.1" vType="CarA" speedFactor="1.07" vaporized="">
        <emissions CO_abs="10260.404944" CO2_abs="255908.237027" HC_abs="52.713082" PMx_abs="5.656572" NOx_abs="112.341279" fuel_abs="81625.660569" electricity_abs="0"/>
    </tripinfo>
    <tripinfo id="flow06.2" depart="74.00" departLane="s_t_0" departPos="5.10" departSpeed="0.00" departDelay="1.67" arrival="100.00" arrivalLane="t_e_0" arrivalPos="136.25" arrivalSpeed="14.41" duration="26.00" routeLength="293.40" waitingTime="0.00" waitingCount="0" stopTime="0.00" timeLoss="4.72" rerouteNo="0" devices="tripinfo_flow06.2 emissions_flow06.2" vType="CarA" speedFactor="1.06" vaporized="">
        <emissions CO_abs="1622.851795" CO2_abs="107015.644006" HC_abs="9.820984" PMx_abs="1.935246" NOx_abs="43.700065" fuel_abs="34133.012643" electricity_abs="0"/>
    </tripinfo>
    <tripinfo id="flow01.7" depart="80.00" departLane="n_t_0" departPos="5.10" departSpeed="0.00" departDelay="0.56" arrival="105.00" arrivalLane="t_s_0" arrivalPos="136.25" arrivalSpeed="13.79" duration="25.00" routeLength="294.90" waitingTime="0.00" waitingCount="0" stopTime="0.00" timeLoss="3.89" rerouteNo="0" devices="tripinfo_flow01.7 emissions_flow01.7" vType="CarA" speedFactor="1.01" vaporized="">
        <emissions CO_abs="1221.325453" CO2_abs="85068.681376" HC_abs="7.480051" PMx_abs="1.444406" NOx_abs="34.114175" fuel_abs="27133.023296" electricity_abs="0"/>
    </tripinfo>
    <tripinfo id="flow04.6" depart="80.00" departLane="s_t_0" departPos="5.10" departSpeed="0.00" departDelay="0.46" arrival="108.00" arrivalLane="t_n_0" arrivalPos="136.25" arrivalSpeed="12.43" duration="28.00" routeLength="294.90" waitingTime="0.00" waitingCount="0" stopTime="0.00" timeLoss="4.39" rerouteNo="0" devices="tripinfo_flow04.6 emissions_flow04.6" vType="CarA" speedFactor="0.93" vaporized="">
        <emissions CO_abs="1129.608280" CO2_abs="82353.696920" HC_abs="6.945742" PMx_abs="1.177478" NOx_abs="31.589849" fuel_abs="26267.284836" electricity_abs="0"/>
    </tripinfo>
    <tripinfo id="flow06.3" depart="76.00" departLane="s_t_0" departPos="5.10" departSpeed="0.00" departDelay="2.17" arrival="111.00" arrivalLane="t_e_0" arrivalPos="136.25" arrivalSpeed="12.33" duration="35.00" routeLength="293.40" waitingTime="3.00" waitingCount="1" stopTime="0.00" timeLoss="11.19" rerouteNo="0" devices="tripinfo_flow06.3 emissions_flow06.3" vType="CarA" speedFactor="0.93" vaporized="">