<?xml version="1.0" encoding="UTF-8"?>

<!-- generated on 2024-07-08 17:38:50 by Eclipse SUMO libsumo Version 1.20.0
<configuration xmlns:xsi="http://www.w3.org/2001/XMLSchema-instance" xsi:noNamespaceSchemaLocation="http://sumo.dlr.de/xsd/libsumoConfiguration.xsd">

    <input>
        <net-file value="D:\trg1vr\sumo-rl\sumo_rl\nets\2way-single-intersection\2-stage.xml"/>
        <route-files value="autodl-tmp\outputs\2_0.7-0.7-0.7-0.7\output.rou.xml"/>
    </input>

    <output>
        <tripinfo-output value="autodl-tmp\outputs\2_0.7-0.7-0.7-0.7\tripinfos-5.xml"/>
    </output>

    <processing>
        <time-to-teleport value="-1"/>
        <waiting-time-memory value="1000"/>
        <max-depart-delay value="-1"/>
    </processing>

    <emissions>
        <device.emissions.probability value="1.0"/>
    </emissions>

    <random_number>
        <seed value="15"/>
    </random_number>

</configuration>
-->

<tripinfos xmlns:xsi="http://www.w3.org/2001/XMLSchema-instance" xsi:noNamespaceSchemaLocation="http://sumo.dlr.de/xsd/tripinfo_file.xsd">
    <tripinfo id="flow01.0" depart="2.00" departLane="n_t_0" departPos="5.10" departSpeed="0.00" departDelay="0.14" arrival="30.00" arrivalLane="t_s_0" arrivalPos="136.25" arrivalSpeed="11.27" duration="28.00" routeLength="294.90" waitingTime="0.00" waitingCount="0" stopTime="0.00" timeLoss="3.48" rerouteNo="0" devices="tripinfo_flow01.0 emissions_flow01.0" vType="CarA" speedFactor="0.88" vaporized="">
        <emissions CO_abs="1093.632480" CO2_abs="79702.909672" HC_abs="6.812403" PMx_abs="1.186710" NOx_abs="31.017843" fuel_abs="25421.746368" electricity_abs="0"/>
    </tripinfo>
    <tripinfo id="flow01.1" depart="7.00" departLane="n_t_0" departPos="5.10" departSpeed="0.00" departDelay="2.91" arrival="32.00" arrivalLane="t_s_0" arrivalPos="136.25" arrivalSpeed="13.86" duration="25.00" routeLength="294.90" waitingTime="0.00" waitingCount="0" stopTime="0.00" timeLoss="3.84" rerouteNo="0" devices="tripinfo_flow01.1 emissions_flow01.1" vType="CarA" speedFactor="1.00" vaporized="">
        <emissions CO_abs="1120.811933" CO2_abs="85248.799879" HC_abs="7.046971" PMx_abs="1.347932" NOx_abs="33.456274" fuel_abs="27190.532620" electricity_abs="0"/>
    </tripinfo>
    <tripinfo id="flow04.0" depart="6.00" departLane="s_t_0" departPos="5.10" departSpeed="0.00" departDelay="0.03" arrival="33.00" arrivalLane="t_n_0" arrivalPos="136.25" arrivalSpeed="12.34" duration="27.00" routeLength="294.90" waitingTime="0.00" waitingCount="0" stopTime="0.00" timeLoss="4.12" rerouteNo="0" devices="tripinfo_flow04.0 emissions_flow04.0" vType="CarA" speedFactor="0.94" vaporized="">
        <emissions CO_abs="1128.329025" CO2_abs="79858.856322" HC_abs="6.950389" PMx_abs="1.235067" NOx_abs="31.302634" fuel_abs="25471.453579" electricity_abs="0"/>
    </tripinfo>
    <tripinfo id="flow02.0" depart="5.00" departLane="n_t_0" departPos="5.10" departSpeed="0.00" departDelay="1.50" arrival="37.00" arrivalLane="t_w_0" arrivalPos="136.25" arrivalSpeed="12.11" duration="32.00" routeLength="293.40" waitingTime="1.00" waitingCount="1" stopTime="0.00" timeLoss="9.20" rerouteNo="0" devices="tripinfo_flow02.0 emissions_flow02.0" vType="CarA" speedFactor="0.95" vaporized="">
        <emissions CO_abs="2073.084440" CO2_abs="109575.041716" HC_abs="11.884345" PMx_abs="1.893172" NOx_abs="44.467704" fuel_abs="34949.687067" electricity_abs="0"/>
    </tripinfo>
    <tripinfo id="flow04.1" depart="24.00" departLane="s_t_0" departPos="5.10" departSpeed="0.00" departDelay="0.41" arrival="51.00" arrivalLane="t_n_0" arrivalPos="136.25" arrivalSpeed="12.83" duration="27.00" routeLength="294.90" waitingTime="0.00" waitingCount="0" stopTime="0.00" timeLoss="3.67" rerouteNo="0" devices="tripinfo_flow04.1 emissions_flow04.1" vType="CarA" speedFactor="0.93" vaporized="">
        <emissions CO_abs="1141.143491" CO2_abs="84822.579419" HC_abs="7.059023" PMx_abs="1.279343" NOx_abs="32.870908" fuel_abs="27054.671613" electricity_abs="0"/>
    </tripinfo>
    <tripinfo id="flow04.2" depart="27.00" departLane="s_t_0" departPos="5.10" departSpeed="0.00" departDelay="3.23" arrival="53.00" arrivalLane="t_n_0" arrivalPos="136.25" arrivalSpeed="13.60" duration="26.00" routeLength="294.90" waitingTime="0.00" waitingCount="0" stopTime="0.00" timeLoss="4.38" rerouteNo="0" devices="tripinfo_flow04.2 emissions_flow04.2" vType="CarA" speedFactor="1.02" vaporized="">
        <emissions CO_abs="1105.446399" CO2_abs="83193.335917" HC_abs="6.823309" PMx_abs="1.271808" NOx_abs="32.172567" fuel_abs="26534.982103" electricity_abs="0"/>
    </tripinfo>
    <tripinfo id="flow04.3" depart="30.00" departLane="s_t_0" departPos="5.10" departSpeed="0.00" departDelay="3.80" arrival="56.00" arrivalLane="t_n_0" arrivalPos="136.25" arrivalSpeed="13.05" duration="26.00" routeLength="294.90" waitingTime="0.00" waitingCount="0" stopTime="0.00" timeLoss="4.17" rerouteNo="0" devices="tripinfo_flow04.3 emissions_flow04.3" vType="CarA" speedFactor="1.01" vaporized="">
        <emissions CO_abs="1086.281446" CO2_abs="79403.653689" HC_abs="6.690880" PMx_abs="1.229869" NOx_abs="30.785521" fuel_abs="25326.250933" electricity_abs="0"/>
    </tripinfo>
    <tripinfo id="flow01.2" depart="29.00" departLane="n_t_0" departPos="5.10" departSpeed="0.00" departDelay="0.01" arrival="56.00" arrivalLane="t_s_0" arrivalPos="136.25" arrivalSpeed="12.83" duration="27.00" routeLength="294.90" waitingTime="0.00" waitingCount="0" stopTime="0.00" timeLoss="4.57" rerouteNo="0" devices="tripinfo_flow01.2 emissions_flow01.2" vType="CarA" speedFactor="0.95" vaporized="">
        <emissions CO_abs="1280.564876" CO2_abs="86149.144056" HC_abs="7.719983" PMx_abs="1.380463" NOx_abs="33.982038" fuel_abs="27477.763768" electricity_abs="0"/>
    </tripinfo>
    <tripinfo id="flow03.0" depart="32.00" departLane="n_t_0" departPos="5.10" departSpeed="0.00" departDelay="2.83" arrival="58.00" arrivalLane="t_e_0" arrivalPos="136.25" arrivalSpeed="14.07" duration="26.00" routeLength="279.21" waitingTime="0.00" waitingCount="0" stopTime="0.00" timeLoss="5.44" rerouteNo="0" devices="tripinfo_flow03.0 emissions_flow03.0" vType="CarA" speedFactor="1.03" vaporized="">
        <emissions CO_abs="1564.797788" CO2_abs="101419.495981" HC_abs="9.415064" PMx_abs="1.803460" NOx_abs="41.326958" fuel_abs="32348.151273" electricity_abs="0"/>
    </tripinfo>
    <tripinfo id="flow02.1" depart="24.00" departLane="n_t_0" departPos="5.10" departSpeed="0.00" departDelay="0.35" arrival="63.00" arrivalLane="t_w_0" arrivalPos="136.25" arrivalSpeed="11.73" duration="39.00" routeLength="293.40" waitingTime="7.00" waitingCount="1" stopTime="0.00" timeLoss="13.49" rerouteNo="0" devices="tripinfo_flow02.1 emissions_flow02.1" vType="CarA" speedFactor="0.88" vaporized="">
        <emissions CO_abs="3018.843660" CO2_abs="124976.371249" HC_abs="16.666372" PMx_abs="2.300642" NOx_abs="51.910461" fuel_abs="39862.295942" electricity_abs="0"/>
    </tripinfo>
    <tripinfo id="flow02.2" depart="27.00" departLane="n_t_0" departPos="5.10" departSpeed="0.00" departDelay="0.90" arrival="64.00" arrivalLane="t_w_0" arrivalPos="136.25" arrivalSpeed="13.63" duration="37.00" routeLength="293.40" waitingTime="4.00" waitingCount="1" stopTime="0.00" timeLoss="15.07" rerouteNo="0" devices="tripinfo_flow02.2 emissions_flow02.2" vType="CarA" speedFactor="1.00" vaporized="">
        <emissions CO_abs="3167.829363" CO2_abs="137488.880171" HC_abs="17.627787" PMx_abs="2.637724" NOx_abs="57.756083" fuel_abs="43853.048696" electricity_abs="0"/>
    </tripinfo>
    <tripinfo id="flow06.0" depart="38.00" departLane="s_t_0" departPos="5.10" departSpeed="0.00" departDelay="0.74" arrival="64.00" arrivalLane="t_e_0" arrivalPos="136.25" arrivalSpeed="13.48" duration="26.00" routeLength="293.40" waitingTime="0.00" waitingCount="0" stopTime="0.00" timeLoss="4.69" rerouteNo="0" devices="tripinfo_flow06.0 emissions_flow06.0" vType="CarA" speedFactor="1.05" vaporized="">
        <emissions CO_abs="1441.066217" CO2_abs="91756.985954" HC_abs="8.652797" PMx_abs="1.669764" NOx_abs="37.746905" fuel_abs="29266.219323" electricity_abs="0"/>
    </tripinfo>
    <tripinfo id="flow11.0" depart="11.00" departLane="e_t_0" departPos="5.10" departSpeed="0.00" departDelay="0.24" arrival="70.00" arrivalLane="t_s_0" arrivalPos="136.25" arrivalSpeed="12.36" duration="59.00" routeLength="279.21" waitingTime="29.00" waitingCount="1" stopTime="0.00" timeLoss="36.96" rerouteNo="0" devices="tripinfo_flow11.0 emissions_flow11.0" vType="CarA" speedFactor="0.97" vaporized="">
        <emissions CO_abs="6638.678983" CO2_abs="184139.325136" HC_abs="34.511761" PMx_abs="3.819017" NOx_abs="79.111905" fuel_abs="58733.740959" electricity_abs="0"/>
    </tripinfo>
    <tripinfo id="flow10.0" depart="1.00" departLane="e_t_0" departPos="5.10" departSpeed="0.00" departDelay="0.13" arrival="71.00" arrivalLane="t_w_0" arrivalPos="136.25" arrivalSpeed="13.98" duration="70.00" routeLength="294.90" waitingTime="38.00" waitingCount="1" stopTime="0.00" timeLoss="49.50" rerouteNo="0" devices="tripinfo_flow10.0 emissions_flow10.0" vType="CarA" speedFactor="1.04" vaporized="">
        <emissions CO_abs="8538.789549" CO2_abs="219949.579708" HC_abs="44.004713" PMx_abs="4.747348" NOx_abs="95.723345" fuel_abs="70156.080316" electricity_abs="0"/>
    </tripinfo>
    <tripinfo id="flow07.0" depart="12.00" departLane="w_t_0" departPos="5.10" departSpeed="0.00" departDelay="0.44" arrival="71.00" arrivalLane="t_e_0" arrivalPos="136.25" arrivalSpeed="12.80" duration="59.00" routeLength="294.90" waitingTime="28.00" waitingCount="1" stopTime="0.00" timeLoss="36.62" rerouteNo="0" devices="tripinfo_flow07.0 emissions_flow07.0" vType="CarA" speedFactor="0.96" vaporized="">
        <emissions CO_abs="6591.487268" CO2_abs="184623.835780" HC_abs="34.294440" PMx_abs="3.784544" NOx_abs="78.950451" fuel_abs="58888.298287" electricity_abs="0"/>
    </tripinfo>
    <tripinfo id="flow11.1" depart="14.00" departLane="e_t_0" departPos="5.10" departSpeed="0.00" departDelay="0.93" arrival="71.00" arrivalLane="t_s_0" arrivalPos="136.25" arrivalSpeed="14.67" duration="57.00" routeLength="279.21" waitingTime="27.00" waitingCount="1" stopTime="0.00" timeLoss="39.02" rerouteNo="0" devices="tripinfo_flow11.1 emissions_flow11.1" vType="CarA" speedFactor="1.17" vaporized="">
        <emissions CO_abs="6898.668834" CO2_abs="200148.136212" HC_abs="36.049112" PMx_abs="4.290217" NOx_abs="86.848216" fuel_abs="63839.604121" electricity_abs="0"/>
    </tripinfo>
    <tripinfo id="flow09.0" depart="22.00" departLane="w_t_0" departPos="5.10" departSpeed="0.00" departDelay="0.14" arrival="71.00" arrivalLane="t_n_0" arrivalPos="136.25" arrivalSpeed="12.64" duration="49.00" routeLength="279.21" waitingTime="18.00" waitingCount="1" stopTime="0.00" timeLoss="26.39" rerouteNo="0" devices="tripinfo_flow09.0 emissions_flow09.0" vType="CarA" speedFactor="0.95" vaporized="">
        <emissions CO_abs="4915.202747" CO2_abs="151827.374426" HC_abs="25.952207" PMx_abs="3.117974" NOx_abs="65.201072" fuel_abs="48427.078041" electricity_abs="0"/>
    </tripinfo>
    <tripinfo id="flow10.1" depart="17.00" departLane="e_t_0" departPos="5.10" departSpeed="0.00" departDelay="2.68" arrival="73.00" arrivalLane="t_w_0" arrivalPos="136.25" arrivalSpeed="14.44" duration="56.00" routeLength="294.90" waitingTime="24.00" waitingCount="1" stopTime="0.00" timeLoss="36.76" rerouteNo="0" devices="tripinfo_flow10.1 emissions_flow10.1" vType="CarA" speedFactor="1.13" vaporized="">
        <emissions CO_abs="6292.746578" CO2_abs="191102.759063" HC_abs="33.048861" PMx_abs="3.930624" NOx_abs="81.747784" fuel_abs="60954.485041" electricity_abs="0"/>
    </tripinfo>
    <tripinfo id="flow09.1" depart="28.00" departLane="w_t_0" departPos="5.10" departSpeed="0.00" departDelay="0.52" arrival="73.00" arrivalLane="t_n_0" arrivalPos="136.25" arrivalSpeed="12.07" duration="45.00" routeLength="279.21" waitingTime="12.00" waitingCount="1" stopTime="0.00" timeLoss="21.88" rerouteNo="0" devices="tripinfo_flow09.1 emissions_flow09.1" vType="CarA" speedFactor="0.90" vaporized="">
        <emissions CO_abs="4138.371439" CO2_abs="137749.719367" HC_abs="22.063112" PMx_abs="2.672724" NOx_abs="58.172955" fuel_abs="43936.820029" electricity_abs="0"/>
    </tripinfo>
    <tripinfo id="flow11.2" depart="36.00" departLane="e_t_0" departPos="5.10" departSpeed="0.00" departDelay="0.36" arrival="73.00" arrivalLane="t_s_0" arrivalPos="136.25" arrivalSpeed="15.62" duration="37.00" routeLength="279.21" waitingTime="8.00" waitingCount="1" stopTime="0.00" timeLoss="18.97" rerouteNo="0" devices="tripinfo_flow11.2 emissions_flow11.2" vType="CarA" speedFactor="1.18" vaporized="">
        <emissions CO_abs="3718.812057" CO2_abs="152096.579088" HC_abs="20.512533" PMx_abs="3.064214" NOx_abs="64.693303" fuel_abs="48512.260765" electricity_abs="0"/>
    </tripinfo>
    <tripinfo id="flow07.1" depart="15.00" departLane="w_t_0" departPos="5.10" departSpeed="0.00" departDelay="2.46" arrival="75.00" arrivalLane="t_e_0" arrivalPos="136.25" arrivalSpeed="10.68" duration="60.00" routeLength="294.90" waitingTime="25.00" waitingCount="1" stopTime="0.00" timeLoss="33.48" rerouteNo="0" devices="tripinfo_flow07.1 emissions_flow07.1" vType="CarA" speedFactor="0.83" vaporized="">
        <emissions CO_abs="6072.085777" CO2_abs="166768.500383" HC_abs="31.545562" PMx_abs="3.400889" NOx_abs="71.499705" fuel_abs="53193.173103" electricity_abs="0"/>
    </tripinfo>
    <tripinfo id="flow10.2" depart="23.00" departLane="e_t_0" departPos="5.10" departSpeed="0.00" departDelay="0.84" arrival="76.00" arrivalLane="t_w_0" arrivalPos="136.25" arrivalSpeed="12.49" duration="53.00" routeLength="294.90" waitingTime="19.00" waitingCount="1" stopTime="0.00" timeLoss="29.67" rerouteNo="0" devices="tripinfo_flow10.2 emissions_flow10.2" vType="CarA" speedFactor="0.92" vaporized="">
        <emissions CO_abs="5352.703982" CO2_abs="160301.286832" HC_abs="28.094220" PMx_abs="3.238993" NOx_abs="68.466560" fuel_abs="51130.092377" electricity_abs="0"/>
    </tripinfo>
    <tripinfo id="flow09.2" depart="31.00" departLane="w_t_0" departPos="5.10" departSpeed="0.00" departDelay="0.44" arrival="77.00" arrivalLane="t_n_0" arrivalPos="136.25" arrivalSpeed="11.32" duration="46.00" routeLength="279.21" waitingTime="10.00" waitingCount="1" stopTime="0.00" timeLoss="21.21" rerouteNo="0" devices="tripinfo_flow09.2 emissions_flow09.2" vType="CarA" speedFactor="0.87" vaporized="">
        <emissions CO_abs="3885.546910" CO2_abs="135396.669167" HC_abs="20.860255" PMx_abs="2.620079" NOx_abs="57.190724" fuel_abs="43186.176145" electricity_abs="0"/>
    </tripinfo>
    <tripinfo id="flow10.3" depart="29.00" departLane="e_t_0" departPos="5.10" departSpeed="0.00" departDelay="0.07" arrival="78.00" arrivalLane="t_w_0" arrivalPos="136.25" arrivalSpeed="11.74" duration="49.00" routeLength="294.90" waitingTime="14.00" waitingCount="1" stopTime="0.00" timeLoss="25.40" rerouteNo="0" devices="tripinfo_flow10.3 emissions_flow10.3" vType="CarA" speedFactor="0.90" vaporized="">
        <emissions CO_abs="4612.102173" CO2_abs="147615.886077" HC_abs="24.405331" PMx_abs="2.840487" NOx_abs="62.057772" fuel_abs="47083.892711" electricity_abs="0"/>
    </tripinfo>
    <tripinfo id="flow09.3" depart="36.00" departLane="w_t_0" departPos="5.10" departSpeed="0.00" departDelay="1.11" arrival="78.00" arrivalLane="t_n_0" arrivalPos="136.25" arrivalSpeed="12.90" duration="42.00" routeLength="279.21" waitingTime="8.00" waitingCount="1" stopTime="0.00" timeLoss="20.18" rerouteNo="0" devices="tripinfo_flow09.3 emissions_flow09.3" vType="CarA" speedFactor="0.96" vaporized="">
        <emissions CO_abs="3813.661747" CO2_abs="134642.646034" HC_abs="20.539188" PMx_abs="2.726486" NOx_abs="57.718992" fuel_abs="42945.498522" electricity_abs="0"/>
    </tripinfo>
    <tripinfo id="flow07.2" depart="52.00" departLane="w_t_0" departPos="5.10" departSpeed="0.00" departDelay="0.52" arrival="78.00" arrivalLane="t_e_0" arrivalPos="136.25" arrivalSpeed="13.42" duration="26.00" routeLength="294.90" waitingTime="0.00" waitingCount="0" stopTime="0.00" timeLoss="4.15" rerouteNo="0" devices="tripinfo_flow07.2 emissions_flow07.2" vType="CarA" speedFactor="1.00" vaporized="">
        <emissions CO_abs="1135.671423" CO2_abs="86368.369089" HC_abs="7.065975" PMx_abs="1.335313" NOx_abs="33.695849" fuel_abs="27547.648811" electricity_abs="0"/>
    </tripinfo>
    <tripinfo id="flow10.4" depart="33.00" departLane="e_t_0" departPos="5.10" departSpeed="0.00" departDelay="0.11" arrival="80.00" arrivalLane="t_w_0" arrivalPos="136.25" arrivalSpeed="14.26" duration="47.00" routeLength="294.90" waitingTime="11.00" waitingCount="1" stopTime="0.00" timeLoss="26.33" rerouteNo="0" devices="tripinfo_flow10.4 emissions_flow10.4" vType="CarA" speedFactor="1.05" vaporized="">
        <emissions CO_abs="4581.923885" CO2_abs="161274.319558" HC_abs="24.613593" PMx_abs="3.178449" NOx_abs="68.306914" fuel_abs="51440.040745" electricity_abs="0"/>
    </tripinfo>
    <tripinfo id="flow11.3" depart="53.00" departLane="e_t_0" departPos="5.10" departSpeed="0.00" departDelay="0.22" arrival="80.00" arrivalLane="t_s_0" arrivalPos="136.25" arrivalSpeed="13.24" duration="27.00" routeLength="279.21" waitingTime="0.00" waitingCount="0" stopTime="0.00" timeLoss="4.64" rerouteNo="0" devices="tripinfo_flow11.3 emissions_flow11.3" vType="CarA" speedFactor="0.96" vaporized="">
        <emissions CO_abs="1540.657621" CO2_abs="100052.036977" HC_abs="9.292382" PMx_abs="1.767461" NOx_abs="40.756797" fuel_abs="31912.005480" electricity_abs="0"/>
    </tripinfo>
    <tripinfo id="flow11.4" depart="56.00" departLane="e_t_0" departPos="5.10" departSpeed="0.00" departDelay="2.26" arrival="82.00" arrivalLane="t_s_0" arrivalPos="136.25" arrivalSpeed="14.09" duration="26.00" routeLength="279.21" waitingTime="0.00" waitingCount="0" stopTime="0.00" timeLoss="5.67" rerouteNo="0" devices="tripinfo_flow11.4 emissions_flow11.4" vType="CarA" speedFactor="1.04" vaporized="">
        <emissions CO_abs="1658.403834" CO2_abs="101225.410681" HC_abs="9.912195" PMx_abs="1.890509" NOx_abs="42.065130" fuel_abs="32286.198082" electricity_abs="0"/>
    </tripinfo>
    <tripinfo id="flow10.5" depart="59.00" departLane="e_t_0" departPos="5.10" departSpeed="0.00" departDelay="1.69" arrival="86.00" arrivalLane="t_w_0" arrivalPos="136.25" arrivalSpeed="12.24" duration="27.00" routeLength="294.90" waitingTime="0.00" waitingCount="0" stopTime="0.00" timeLoss="3.82" rerouteNo="0" devices="tripinfo_flow10.5 emissions_flow10.5" vType="CarA" speedFactor="0.93" vaporized="">
        <emissions CO_abs="1100.799424" CO2_abs="84645.462368" HC_abs="6.848420" PMx_abs="1.224085" NOx_abs="32.453731" fuel_abs="26998.210629" electricity_abs="0"/>
    </tripinfo>
    <tripinfo id="flow12.0" depart="63.00" departLane="e_t_0" departPos="5.10" departSpeed="0.00" departDelay="0.45" arrival="88.00" arrivalLane="t_n_0" arrivalPos="136.25" arrivalSpeed="15.03" duration="25.00" routeLength="293.40" waitingTime="0.00" waitingCount="0" stopTime="0.00" timeLoss="4.83" rerouteNo="0" devices="tripinfo_flow12.0 emissions_flow12.0" vType="CarA" speedFactor="1.12" vaporized="">
        <emissions CO_abs="1558.957373" CO2_abs="103823.333510" HC_abs="9.470101" PMx_abs="1.899349" NOx_abs="42.396330" fuel_abs="33114.796551" electricity_abs="0"/>
    </tripinfo>
    <tripinfo id="flow08.0" depart="4.00" departLane="w_t_0" departPos="5.10" departSpeed="0.00" departDelay="0.61" arrival="91.00" arrivalLane="t_s_0" arrivalPos="136.25" arrivalSpeed="12.44" duration="87.00" routeLength="293.40" waitingTime="51.00" waitingCount="2" stopTime="0.00" timeLoss="64.30" rerouteNo="0" devices="tripinfo_flow08.0 emissions_flow08.0" vType="CarA" speedFactor="0.98" vaporized="">
        <emissions CO_abs="10854.441519" CO2_abs="254138.395478" HC_abs="55.274709" PMx_abs="5.551154" NOx_abs="111.023062" fuel_abs="81061.643640" electricity_abs="0"/>
    </tripinfo>
    <tripinfo id="flow05.0" depart="51.00" departLane="s_t_0" departPos="5.10" departSpeed="0.00" departDelay="1.64" arrival="93.00" arrivalLane="t_w_0" arrivalPos="136.25" arrivalSpeed="13.52" duration="42.00" routeLength="279.21" waitingTime="12.00" waitingCount="1" stopTime="0.00" timeLoss="22.06" rerouteNo="0" devices="tripinfo_flow05.0 emissions_flow05.0" vType="CarA" speedFactor="1.05" vaporized="">
        <emissions CO_abs="4265.567581" CO2_abs="150066.609118" HC_abs="22.725368" PMx_abs="2.939431" NOx_abs="62.967175" fuel_abs="47865.245643" electricity_abs="0"/>
    </tripinfo>
    <tripinfo id="flow04.4" depart="44.00" departLane="s_t_0" departPos="5.10" departSpeed="0.00" departDelay="0.09" arrival="95.00" arrivalLane="t_n_0" arrivalPos="136.25" arrivalSpeed="12.63" duration="51.00" routeLength="294.90" waitingTime="20.00" waitingCount="1" stopTime="0.00" timeLoss="28.43" rerouteNo="0" devices="tripinfo_flow04.4 emissions_flow04.4" vType="CarA" speedFactor="0.97" vaporized="">
        <emissions CO_abs="5268.626016" CO2_abs="159980.110797" HC_abs="27.743900" PMx_abs="3.283573" NOx_abs="68.567605" fuel_abs="51027.553822" electricity_abs="0"/>
    </tripinfo>
    <tripinfo id="flow01.3" depart="50.00" departLane="n_t_0" departPos="5.10" departSpeed="0.00" departDelay="0.69" arrival="95.00" arrivalLane="t_s_0" arrivalPos="136.25" arrivalSpeed="12.78" duration="45.00" routeLength="294.90" waitingTime="13.00" waitingCount="1" stopTime="0.00" timeLoss="21.95" rerouteNo="0" devices="tripinfo_flow01.3 emissions_flow01.3" vType="CarA" speedFactor="0.92" vaporized="">
        <emissions CO_abs="4249.420047" CO2_abs="144014.407052" HC_abs="22.662566" PMx_abs="2.842783" NOx_abs="60.936018" fuel_abs="45934.917332" electricity_abs="0"/>
    </tripinfo>
    <tripinfo id="flow05.1" depart="54.00" departLane="s_t_0" departPos="5.10" departSpeed="0.00" departDelay="4.00" arrival="96.00" arrivalLane="t_w_0" arrivalPos="136.25" arrivalSpeed="12.84" duration="42.00" routeLength="279.21" waitingTime="11.00" waitingCount="1" stopTime="0.00" timeLoss="20.11" rerouteNo="0" devices="tripinfo_flow05.1 emissions_flow05.1" vType="CarA" speedFactor="0.95" vaporized="">
        <emissions CO_abs="3835.603794" CO2_abs="138852.736626" HC_abs="20.686735" PMx_abs="2.688625" NOx_abs="58.393247" fuel_abs="44288.443506" electricity_abs="0"/>
    </tripinfo>
    <tripinfo id="flow04.5" depart="48.00" departLane="s_t_0" departPos="5.10" departSpeed="0.00" departDelay="0.98" arrival="97.00" arrivalLane="t_n_0" arrivalPos="136.25" arrivalSpeed="13.03" duration="49.00" routeLength="294.90" waitingTime="16.00" waitingCount="1" stopTime="0.00" timeLoss="26.16" rerouteNo="0" devices="tripinfo_flow04.5 emissions_flow04.5" vType="CarA" speedFactor="0.94" vaporized="">
        <emissions CO_abs="4989.638622" CO2_abs="161077.312935" HC_abs="26.435741" PMx_abs="3.191227" NOx_abs="68.231409" fuel_abs="51377.451808" electricity_abs="0"/>
    </tripinfo>
    <tripinfo id="flow01.4" depart="58.00" departLane="n_t_0" departPos="5.10" departSpeed="0.00" departDelay="0.19" arrival="97.00" arrivalLane="t_s_0" arrivalPos="136.25" arrivalSpeed="12.69" duration="39.00" routeLength="294.90" waitingTime="6.00" waitingCount="1" stopTime="0.00" timeLoss="17.36" rerouteNo="0" devices="tripinfo_flow01.4 emissions_flow01.4" vType="CarA" speedFactor="0.99" vaporized="">
        <emissions CO_abs="3395.025206" CO2_abs="133642.037072" HC_abs="18.594304" PMx_abs="2.589466" NOx_abs="56.307564" fuel_abs="42626.246267" electricity_abs="0"/>
    </tripinfo>
    <tripinfo id="flow05.2" depart="62.00" departLane="s_t_0" departPos="5.10" departSpeed="0.00" departDelay="0.58" arrival="98.00" arrivalLane="t_w_0" arrivalPos="136.25" arrivalSpeed="15.97" duration="36.00" routeLength="279.21" waitingTime="5.00" waitingCount="1" stopTime="0.00" timeLoss="18.37" rerouteNo="0" devices="tripinfo_flow05.2 emissions_flow05.2" vType="CarA" speedFactor="1.19" vaporized="">
        <emissions CO_abs="3478.468851" CO2_abs="148684.687421" HC_abs="19.294775" PMx_abs="2.961376" NOx_abs="63.077922" fuel_abs="47423.944794" electricity_abs="0"/>
    </tripinfo>
    <tripinfo id="flow04.6" depart="75.00" departLane="s_t_0" departPos="5.10" departSpeed="0.00" departDelay="0.28" arrival="101.00" arrivalLane="t_n_0" arrivalPos="136.25" arrivalSpeed="13.15" duration="26.00" routeLength="294.90" waitingTime="0.00" waitingCount="0" stopTime="0.00" timeLoss="4.11" rerouteNo="0" devices="tripinfo_flow04.6 emissions_flow04.6" vType="CarA" speedFactor="0.99" vaporized="">
        <emissions CO_abs="1118.059198" CO2_abs="83909.103272" HC_abs="6.779156" PMx_abs="1.246808" NOx_abs="32.217422" fuel_abs="26763.311485" electricity_abs="0"/>
    </tripinfo>
    <tripinfo id="flow04.7" depart="80.00" departLane="s_t_0" departPos="5.10" departSpeed="0.00" departDelay="0.66" arrival="107.00" arrivalLane="t_n_0" arrivalPos="136.25" arrivalSpeed="12.53" duration="27.00" routeLength="294.90" waitingTime="0.00" waitingCount="0" stopTime="0.00" timeLoss="4.84" rerouteNo="0" devices="tripinfo_flow04.7 emissions_flow04.7" vType="CarA" speedFactor="0.97" vaporized="">
        <emissions CO_abs="1158.967146" CO2_abs="76570.905785" HC_abs="6.984426" PMx_abs="1.211627" NOx_abs="30.209841" fuel_abs="24422.753895" electricity_abs="0"/>
    </tripinfo>
    <tripinfo id="flow05.3" depart="83.00" departLane="s_t_0" departPos="5.10" departSpeed="0.00" departDelay="3.60" arrival="107.00" arrivalLane="t_w_0" arrivalPos="136.25" arrivalSpeed="14.39" duration="24.00" routeLength="279.21" waitingTime="0.00" waitingCount="0" stopTime="0.00" timeLoss="5.14" rerouteNo="0" devices="tripinfo_flow05.3 emissions_flow05.3" vType="CarA" speedFactor="1.11" vaporized="">
        <emissions CO_abs="1589.838672" CO2_abs="100641.598522" HC_abs="9.629542" PMx_abs="1.900661" NOx_abs="41.865848" fuel_abs="32099.940034" electricity_abs="0"/>
    </tripinfo>
    <tripinfo id="flow01.5" depart="85.00" departLane="n_t_0" departPos="5.10" departSpeed="0.00" departDelay="2.05" arrival="109.00" arrivalLane="t_s_0" arrivalPos="136.25" arrivalSpeed="14.49" duration="24.00" routeLength="294.90" waitingTime="0.00" waitingCount="0" stopTime="0.00" timeLoss="3.91" rerouteNo="0" devices="tripinfo_flow01.5 emissions_flow01.5" vType="CarA" speedFactor="1.10" vaporized="">
        <emissions CO_abs="1233.457020" CO2_abs="85652.735206" HC_abs="7.617919" PMx_abs="1.536253" NOx_abs="34.804575" fuel_abs="27319.233025" electricity_abs="0"/>
    </tripinfo>
    <tripinfo id="flow03.1" depart="82.00" departLane="n_t_0" departPos="5.10" departSpeed="0.00" departDelay="0.90" arrival="110.00" arrivalLane="t_e_0" arrivalPos="136.25" arrivalSpeed="11.98" duration="28.00" routeLength="279.21" waitingTime="0.00" waitingCount="0" stopTime="0.00" timeLoss="4.84" rerouteNo="0" devices="tripinfo_flow03.1 emissions_flow03.1" vType="CarA" speedFactor="0.91" vaporized="">
        <emissions CO_abs="1394.959844" CO2_abs="92280.548654" HC_abs="8.467250" PMx_abs="1.522295" NOx_abs="37.020762" fuel_abs="29433.358950" electricity_abs="0"/>
    </tripinfo>
    <tripinfo id="flow04.8" depart="86.00" departLane="s_t_0" departPos="5.10" departSpeed="0.00" departDelay="4.91" arrival="114.00" arrivalLane="t_n_0" arrivalPos="136.25" arrivalSpeed="11.99" duration="28.00" routeLength="294.90" waitingTime="0.00" waitingCount="0" stopTime="0.00" timeLoss="3.64" rerouteNo="0" devices="tripinfo_flow04.8 emissions_flow04.8" vType="CarA" speedFactor="0.88" vaporized="">
        <emissions CO_abs="1058.256205" CO2_abs="80755.935514" HC_abs="6.583638" PMx_abs="1.098104" NOx_abs="30.567332" fuel_abs="25757.712187" electricity_abs="0"/>
    </tripinfo>
    <tripinfo id="flow06.1" depart="40.00" departLane="s_t_0" departPos="5.10" departSpeed="0.00" departDelay="2.72" arrival="115.00" arrivalLane="t_e_0" arrivalPos="136.25" arrivalSpeed="11.98" duration="75.00" routeLength="293.40" waitingTime="39.00" waitingCount="2" stopTime="0.00" timeLoss="51.52" rerouteNo="0" devices="tripinfo_flow06.1 emissions_flow06.1" vType="CarA" speedFactor="0.93" vaporized="">
        <emissions CO_abs="8864.058087" CO2_abs="217129.636696" HC_abs="45.344739" PMx_abs="4.607587" NOx_abs="94.051207" fuel_abs="69256.982947" electricity_abs="0"/>
    </tripinfo>
    <tripinfo id="flow04.9" depart="90.00" departLane="s_t_0" departPos="5.10" departSpeed="0.00" departDelay="4.77" arrival="116.00" arrivalLane="t_n_0" arrivalPos="136.25" arrivalSpeed="12.41" duration="26.00" routeLength="294.90" waitingTime="0.00" waitingCount="0" stopTime="0.00" timeLoss="4.01" rerouteNo="0" devices="tripinfo_flow04.9 emissions_flow04.9" vType="CarA" speedFactor="0.99" vaporized="">
        <emissions CO_abs="1075.587049" CO2_abs="81233.135392" HC_abs="6.643306" PMx_abs="1.256166" NOx_abs="31.645992" fuel_abs="25909.745266" electricity_abs="0"/>
    </tripinfo>
    <tripinfo id="flow01.6" depart="94.00" departLane="n_t_0" departPos="5.10" departSpeed="0.00" departDelay="0.73" arrival="120.00" arrivalLane="t_s_0" arrivalPos="136.25" arrivalSpeed="12.85" duration="26.00" routeLength="294.90" waitingTime="0.00" waitingCount="0" stopTime="0.00" timeLoss="3.40" rerouteNo="0" devices="tripinfo_flow01.6 emissions_flow01.6" vType="CarA" speedFactor="0.95" vaporized="">
        <emissions CO_abs="1089.514458" CO2_abs="82478.501805" HC_abs="6.706436" PMx_abs="1.251008" NOx_abs="31.907558" fuel_abs="26306.986990" electricity_abs="0"/>
    </tripinfo>
    <tripinfo id="flow05.4" depart="92.00" departLane="s_t_0" departPos="5.10" departSpeed="0.00" departDelay="4.58" arrival="122.00" arrivalLane="t_w_0" arrivalPos="136.25" arrivalSpeed="10.62" duration="30.00" routeLength="279.21" waitingTime="0.00" waitingCount="0" stopTime="0.00" timeLoss="5.29" rerouteNo="0" devices="tripinfo_flow05.4 emissions_flow05.4" vType="CarA" speedFactor="0.85" vaporized="">