<?xml version="1.0" encoding="UTF-8"?>

<!-- generated on 2024-07-07 16:50:26 by Eclipse SUMO libsumo Version 1.20.0
<configuration xmlns:xsi="http://www.w3.org/2001/XMLSchema-instance" xsi:noNamespaceSchemaLocation="http://sumo.dlr.de/xsd/libsumoConfiguration.xsd">

    <input>
        <net-file value="sumo_rl/nets/2way-single-intersection/single-intersection-4.net.xml"/>
        <route-files value="/root/autodl-tmp/outputs/2024-07-07/16-49-54-1684/output.rou.xml"/>
    </input>

    <output>
        <tripinfo-output value="/root/autodl-tmp/outputs/2024-07-07/16-49-54-1684/tripinfos-6.xml"/>
    </output>

    <processing>
        <time-to-teleport value="-1"/>
        <waiting-time-memory value="1000"/>
        <max-depart-delay value="-1"/>
    </processing>

    <random_number>
        <seed value="30"/>
    </random_number>

</configuration>
-->

<tripinfos xmlns:xsi="http://www.w3.org/2001/XMLSchema-instance" xsi:noNamespaceSchemaLocation="http://sumo.dlr.de/xsd/tripinfo_file.xsd">
    <tripinfo id="flow05.0" depart="7.00" departLane="s_t_0" departPos="5.10" departSpeed="0.00" departDelay="0.58" arrival="33.00" arrivalLane="t_w_0" arrivalPos="136.25" arrivalSpeed="13.60" duration="26.00" routeLength="279.21" waitingTime="0.00" waitingCount="0" stopTime="0.00" timeLoss="5.39" rerouteNo="0" devices="tripinfo_flow05.0" vType="CarA" speedFactor="1.01" vaporized=""/>
    <tripinfo id="flow06.0" depart="14.00" departLane="s_t_0" departPos="5.10" departSpeed="0.00" departDelay="0.04" arrival="39.00" arrivalLane="t_e_0" arrivalPos="136.25" arrivalSpeed="13.99" duration="25.00" routeLength="293.40" waitingTime="0.00" waitingCount="0" stopTime="0.00" timeLoss="4.33" rerouteNo="0" devices="tripinfo_flow06.0" vType="CarA" speedFactor="1.07" vaporized=""/>
    <tripinfo id="flow04.0" depart="17.00" departLane="s_t_0" departPos="5.10" departSpeed="0.00" departDelay="0.81" arrival="42.00" arrivalLane="t_n_0" arrivalPos="136.25" arrivalSpeed="14.06" duration="25.00" routeLength="294.90" waitingTime="0.00" waitingCount="0" stopTime="0.00" timeLoss="4.17" rerouteNo="0" devices="tripinfo_flow04.0" vType="CarA" speedFactor="1.02" vaporized=""/>
    <tripinfo id="flow04.1" depart="20.00" departLane="s_t_0" departPos="5.10" departSpeed="0.00" departDelay="0.98" arrival="44.00" arrivalLane="t_n_0" arrivalPos="136.25" arrivalSpeed="14.66" duration="24.00" routeLength="294.90" waitingTime="0.00" waitingCount="0" stopTime="0.00" timeLoss="4.26" rerouteNo="0" devices="tripinfo_flow04.1" vType="CarA" speedFactor="1.09" vaporized=""/>
    <tripinfo id="flow05.1" depart="23.00" departLane="s_t_0" departPos="5.10" departSpeed="0.00" departDelay="2.52" arrival="50.00" arrivalLane="t_w_0" arrivalPos="136.25" arrivalSpeed="12.55" duration="27.00" routeLength="279.21" waitingTime="0.00" waitingCount="0" stopTime="0.00" timeLoss="5.42" rerouteNo="0" devices="tripinfo_flow05.1" vType="CarA" speedFactor="0.99" vaporized=""/>
    <tripinfo id="flow06.1" depart="36.00" departLane="s_t_0" departPos="5.10" departSpeed="0.00" departDelay="0.33" arrival="62.00" arrivalLane="t_e_0" arrivalPos="136.25" arrivalSpeed="13.89" duration="26.00" routeLength="293.40" waitingTime="0.00" waitingCount="0" stopTime="0.00" timeLoss="4.52" rerouteNo="0" devices="tripinfo_flow06.1" vType="CarA" speedFactor="1.04" vaporized=""/>
    <tripinfo id="flow04.2" depart="45.00" departLane="s_t_0" departPos="5.10" departSpeed="0.00" departDelay="0.33" arrival="68.00" arrivalLane="t_n_0" arrivalPos="136.25" arrivalSpeed="15.72" duration="23.00" routeLength="294.90" waitingTime="0.00" waitingCount="0" stopTime="0.00" timeLoss="3.99" rerouteNo="0" devices="tripinfo_flow04.2" vType="CarA" speedFactor="1.13" vaporized=""/>
    <tripinfo id="flow05.2" depart="40.00" departLane="s_t_0" departPos="5.10" departSpeed="0.00" departDelay="0.25" arrival="69.00" arrivalLane="t_w_0" arrivalPos="136.25" arrivalSpeed="11.86" duration="29.00" routeLength="279.21" waitingTime="0.00" waitingCount="0" stopTime="0.00" timeLoss="5.35" rerouteNo="0" devices="tripinfo_flow05.2" vType="CarA" speedFactor="0.89" vaporized=""/>
    <tripinfo id="flow06.2" depart="43.00" departLane="s_t_0" departPos="5.10" departSpeed="0.00" departDelay="0.09" arrival="71.00" arrivalLane="t_e_0" arrivalPos="136.25" arrivalSpeed="12.78" duration="28.00" routeLength="293.40" waitingTime="0.00" waitingCount="0" stopTime="0.00" timeLoss="4.08" rerouteNo="0" devices="tripinfo_flow06.2" vType="CarA" speedFactor="0.93" vaporized=""/>
    <tripinfo id="flow11.0" depart="22.00" departLane="e_t_0" departPos="5.10" departSpeed="0.00" departDelay="5.45" arrival="77.00" arrivalLane="t_s_0" arrivalPos="136.25" arrivalSpeed="13.10" duration="55.00" routeLength="279.21" waitingTime="27.00" waitingCount="1" stopTime="0.00" timeLoss="34.23" rerouteNo="0" devices="tripinfo_flow11.0" vType="CarA" speedFactor="1.00" vaporized=""/>
    <tripinfo id="flow12.0" depart="8.00" departLane="e_t_0" departPos="5.10" departSpeed="0.00" departDelay="0.02" arrival="79.00" arrivalLane="t_n_0" arrivalPos="136.25" arrivalSpeed="14.26" duration="71.00" routeLength="293.40" waitingTime="40.00" waitingCount="1" stopTime="0.00" timeLoss="49.06" rerouteNo="0" devices="tripinfo_flow12.0" vType="CarA" speedFactor="1.03" vaporized=""/>
    <tripinfo id="flow11.1" depart="25.00" departLane="e_t_0" departPos="5.10" departSpeed="0.00" departDelay="7.38" arrival="80.00" arrivalLane="t_s_0" arrivalPos="136.25" arrivalSpeed="13.59" duration="55.00" routeLength="279.21" waitingTime="25.00" waitingCount="1" stopTime="0.00" timeLoss="34.56" rerouteNo="0" devices="tripinfo_flow11.1" vType="CarA" speedFactor="1.05" vaporized=""/>
    <tripinfo id="flow10.0" depart="4.00" departLane="e_t_0" departPos="5.10" departSpeed="0.00" departDelay="0.30" arrival="81.00" arrivalLane="t_w_0" arrivalPos="136.25" arrivalSpeed="10.89" duration="77.00" routeLength="294.90" waitingTime="42.00" waitingCount="1" stopTime="0.00" timeLoss="50.61" rerouteNo="0" devices="tripinfo_flow10.0" vType="CarA" speedFactor="0.83" vaporized=""/>
    <tripinfo id="flow10.1" depart="10.00" departLane="e_t_0" departPos="5.10" departSpeed="0.00" departDelay="0.61" arrival="82.00" arrivalLane="t_w_0" arrivalPos="136.25" arrivalSpeed="12.64" duration="72.00" routeLength="294.90" waitingTime="40.00" waitingCount="1" stopTime="0.00" timeLoss="50.61" rerouteNo="0" devices="tripinfo_flow10.1" vType="CarA" speedFactor="1.00" vaporized=""/>
    <tripinfo id="flow12.1" depart="36.00" departLane="e_t_0" departPos="5.10" departSpeed="0.00" departDelay="0.97" arrival="82.00" arrivalLane="t_n_0" arrivalPos="136.25" arrivalSpeed="11.93" duration="46.00" routeLength="293.40" waitingTime="12.00" waitingCount="1" stopTime="0.00" timeLoss="21.70" rerouteNo="0" devices="tripinfo_flow12.1" vType="CarA" speedFactor="0.91" vaporized=""/>
    <tripinfo id="flow02.0" depart="2.00" departLane="n_t_0" departPos="5.10" departSpeed="0.00" departDelay="0.65" arrival="86.00" arrivalLane="t_w_0" arrivalPos="136.25" arrivalSpeed="16.03" duration="84.00" routeLength="293.40" waitingTime="55.00" waitingCount="1" stopTime="0.00" timeLoss="65.31" rerouteNo="0" devices="tripinfo_flow02.0" vType="CarA" speedFactor="1.17" vaporized=""/>
    <tripinfo id="flow03.0" depart="16.00" departLane="n_t_0" departPos="5.10" departSpeed="0.00" departDelay="0.91" arrival="88.00" arrivalLane="t_e_0" arrivalPos="136.25" arrivalSpeed="13.11" duration="72.00" routeLength="279.21" waitingTime="41.00" waitingCount="1" stopTime="0.00" timeLoss="49.73" rerouteNo="0" devices="tripinfo_flow03.0" vType="CarA" speedFactor="0.98" vaporized=""/>
    <tripinfo id="flow02.1" depart="24.00" departLane="n_t_0" departPos="5.10" departSpeed="0.00" departDelay="0.02" arrival="88.00" arrivalLane="t_w_0" arrivalPos="136.25" arrivalSpeed="14.88" duration="64.00" routeLength="293.40" waitingTime="36.00" waitingCount="1" stopTime="0.00" timeLoss="44.39" rerouteNo="0" devices="tripinfo_flow02.1" vType="CarA" speedFactor="1.11" vaporized=""/>
    <tripinfo id="flow01.0" depart="5.00" departLane="n_t_0" departPos="5.10" departSpeed="0.00" departDelay="0.32" arrival="89.00" arrivalLane="t_s_0" arrivalPos="136.25" arrivalSpeed="12.40" duration="84.00" routeLength="294.90" waitingTime="50.00" waitingCount="1" stopTime="0.00" timeLoss="59.77" rerouteNo="0" devices="tripinfo_flow01.0" vType="CarA" speedFactor="0.90" vaporized=""/>
    <tripinfo id="flow03.1" depart="27.00" departLane="n_t_0" departPos="5.10" departSpeed="0.00" departDelay="1.64" arrival="90.00" arrivalLane="t_e_0" arrivalPos="136.25" arrivalSpeed="13.64" duration="63.00" routeLength="279.21" waitingTime="31.00" waitingCount="1" stopTime="0.00" timeLoss="41.36" rerouteNo="0" devices="tripinfo_flow03.1" vType="CarA" speedFactor="1.01" vaporized=""/>
    <tripinfo id="flow01.1" depart="45.00" departLane="n_t_0" departPos="5.10" departSpeed="0.00" departDelay="0.46" arrival="91.00" arrivalLane="t_s_0" arrivalPos="136.25" arrivalSpeed="14.92" duration="46.00" routeLength="294.90" waitingTime="12.00" waitingCount="1" stopTime="0.00" timeLoss="25.27" rerouteNo="0" devices="tripinfo_flow01.1" vType="CarA" speedFactor="1.07" vaporized=""/>
    <tripinfo id="flow03.2" depart="57.00" departLane="n_t_0" departPos="5.10" departSpeed="0.00" departDelay="9.02" arrival="91.00" arrivalLane="t_e_0" arrivalPos="136.25" arrivalSpeed="14.54" duration="34.00" routeLength="279.21" waitingTime="4.00" waitingCount="1" stopTime="0.00" timeLoss="14.61" rerouteNo="0" devices="tripinfo_flow03.2" vType="CarA" speedFactor="1.09" vaporized=""/>
    <tripinfo id="flow01.2" depart="48.00" departLane="n_t_0" departPos="5.10" departSpeed="0.00" departDelay="2.37" arrival="93.00" arrivalLane="t_s_0" arrivalPos="136.25" arrivalSpeed="11.86" duration="45.00" routeLength="294.90" waitingTime="10.00" waitingCount="1" stopTime="0.00" timeLoss="21.19" rerouteNo="0" devices="tripinfo_flow01.2" vType="CarA" speedFactor="0.92" vaporized=""/>
    <tripinfo id="flow02.2" depart="25.00" departLane="n_t_0" departPos="5.10" departSpeed="0.00" departDelay="0.93" arrival="94.00" arrivalLane="t_w_0" arrivalPos="136.25" arrivalSpeed="11.10" duration="69.00" routeLength="293.40" waitingTime="34.00" waitingCount="1" stopTime="0.00" timeLoss="43.52" rerouteNo="0" devices="tripinfo_flow02.2" vType="CarA" speedFactor="0.86" vaporized=""/>
    <tripinfo id="flow01.3" depart="51.00" departLane="n_t_0" departPos="5.10" departSpeed="0.00" departDelay="4.96" arrival="94.00" arrivalLane="t_s_0" arrivalPos="136.25" arrivalSpeed="14.00" duration="43.00" routeLength="294.90" waitingTime="8.00" waitingCount="1" stopTime="0.00" timeLoss="24.20" rerouteNo="0" devices="tripinfo_flow01.3" vType="CarA" speedFactor="1.13" vaporized=""/>
    <tripinfo id="flow03.3" depart="60.00" departLane="n_t_0" departPos="5.10" departSpeed="0.00" departDelay="7.51" arrival="95.00" arrivalLane="t_e_0" arrivalPos="136.25" arrivalSpeed="12.22" duration="35.00" routeLength="279.21" waitingTime="1.00" waitingCount="1" stopTime="0.00" timeLoss="12.43" rerouteNo="0" devices="tripinfo_flow03.3" vType="CarA" speedFactor="0.96" vaporized=""/>
    <tripinfo id="flow02.3" depart="35.00" departLane="n_t_0" departPos="5.10" departSpeed="0.00" departDelay="0.05" arrival="96.00" arrivalLane="t_w_0" arrivalPos="136.25" arrivalSpeed="12.64" duration="61.00" routeLength="293.40" waitingTime="26.00" waitingCount="1" stopTime="0.00" timeLoss="38.49" rerouteNo="0" devices="tripinfo_flow02.3" vType="CarA" speedFactor="0.99" vaporized=""/>
    <tripinfo id="flow03.4" depart="63.00" departLane="n_t_0" departPos="5.10" departSpeed="0.00" departDelay="7.69" arrival="96.00" arrivalLane="t_e_0" arrivalPos="136.25" arrivalSpeed="14.42" duration="33.00" routeLength="279.21" waitingTime="0.00" waitingCount="0" stopTime="0.00" timeLoss="13.32" rerouteNo="0" devices="tripinfo_flow03.4" vType="CarA" speedFactor="1.07" vaporized=""/>
    <tripinfo id="flow01.4" depart="54.00" departLane="n_t_0" departPos="5.10" departSpeed="0.00" departDelay="7.90" arrival="97.00" arrivalLane="t_s_0" arrivalPos="136.25" arrivalSpeed="11.90" duration="43.00" routeLength="294.90" waitingTime="8.00" waitingCount="1" stopTime="0.00" timeLoss="18.73" rerouteNo="0" devices="tripinfo_flow01.4" vType="CarA" speedFactor="0.89" vaporized=""/>
    <tripinfo id="flow02.4" depart="66.00" departLane="n_t_0" departPos="5.10" departSpeed="0.00" departDelay="8.68" arrival="98.00" arrivalLane="t_w_0" arrivalPos="136.25" arrivalSpeed="12.96" duration="32.00" routeLength="293.40" waitingTime="0.00" waitingCount="0" stopTime="0.00" timeLoss="8.77" rerouteNo="0" devices="tripinfo_flow02.4" vType="CarA" speedFactor="0.97" vaporized=""/>
    <tripinfo id="flow03.5" depart="71.00" departLane="n_t_0" departPos="5.10" departSpeed="0.00" departDelay="0.41" arrival="100.00" arrivalLane="t_e_0" arrivalPos="136.25" arrivalSpeed="12.56" duration="29.00" routeLength="279.21" waitingTime="0.00" waitingCount="0" stopTime="0.00" timeLoss="6.10" rerouteNo="0" devices="tripinfo_flow03.5" vType="CarA" speedFactor="0.94" vaporized=""/>
    <tripinfo id="flow02.5" depart="74.00" departLane="n_t_0" departPos="5.10" departSpeed="0.00" departDelay="1.02" arrival="100.00" arrivalLane="t_w_0" arrivalPos="136.25" arrivalSpeed="13.04" duration="26.00" routeLength="293.40" waitingTime="0.00" waitingCount="0" stopTime="0.00" timeLoss="4.32" rerouteNo="0" devices="tripinfo_flow02.5" vType="CarA" speedFactor="1.01" vaporized=""/>
    <tripinfo id="flow03.6" depart="79.00" departLane="n_t_0" departPos="5.10" departSpeed="0.00" departDelay="0.31" arrival="106.00" arrivalLane="t_e_0" arrivalPos="136.25" arrivalSpeed="12.16" duration="27.00" routeLength="279.21" waitingTime="0.00" waitingCount="0" stopTime="0.00" timeLoss="4.93" rerouteNo="0" devices="tripinfo_flow03.6" vType="CarA" speedFactor="0.95" vaporized=""/>
    <tripinfo id="flow06.3" depart="62.00" departLane="s_t_0" departPos="5.10" departSpeed="0.00" departDelay="1.46" arrival="115.00" arrivalLane="t_e_0" arrivalPos="136.25" arrivalSpeed="15.35" duration="53.00" routeLength="293.40" waitingTime="24.00" waitingCount="1" stopTime="0.00" timeLoss="33.76" rerouteNo="0" devices="tripinfo_flow06.3" vType="CarA" speedFactor="1.12" vaporized=""/>
    <tripinfo id="flow05.3" depart="69.00" departLane="s_t_0" departPos="5.10" departSpeed="0.00" departDelay="2.18" arrival="115.00" arrivalLane="t_w_0" arrivalPos="136.25" arrivalSpeed="14.07" duration="46.00" routeLength="279.21" waitingTime="15.00" waitingCount="1" stopTime="0.00" timeLoss="26.63" rerouteNo="0" devices="tripinfo_flow05.3" vType="CarA" speedFactor="1.10" vaporized=""/>
    <tripinfo id="flow04.3" depart="52.00" departLane="s_t_0" departPos="5.10" departSpeed="0.00" departDelay="0.57" arrival="117.00" arrivalLane="t_n_0" arrivalPos="136.25" arrivalSpeed="12.41" duration="65.00" routeLength="294.90" waitingTime="33.00" waitingCount="1" stopTime="0.00" timeLoss="42.44" rerouteNo="0" devices="tripinfo_flow04.3" vType="CarA" speedFactor="0.95" vaporized=""/>
    <tripinfo id="flow04.4" depart="59.00" departLane="s_t_0" departPos="5.10" departSpeed="0.00" departDelay="0.07" arrival="119.00" arrivalLane="t_n_0" arrivalPos="136.25" arrivalSpeed="13.62" duration="60.00" routeLength="294.90" waitingTime="28.00" waitingCount="1" stopTime="0.00" timeLoss="38.06" rerouteNo="0" devices="tripinfo_flow04.4" vType="CarA" speedFactor="0.99" vaporized=""/>
    <tripinfo id="flow06.4" depart="72.00" departLane="s_t_0" departPos="5.10" departSpeed="0.00" departDelay="1.10" arrival="119.00" arrivalLane="t_e_0" arrivalPos="136.25" arrivalSpeed="13.75" duration="47.00" routeLength="293.40" waitingTime="15.00" waitingCount="1" stopTime="0.00" timeLoss="24.72" rerouteNo="0" devices="tripinfo_flow06.4" vType="CarA" speedFactor="1.00" vaporized=""/>
    <tripinfo id="flow04.5" depart="64.00" departLane="s_t_0" departPos="5.10" departSpeed="0.00" departDelay="0.30" arrival="121.00" arrivalLane="t_n_0" arrivalPos="136.25" arrivalSpeed="13.56" duration="57.00" routeLength="294.90" waitingTime="25.00" waitingCount="1" stopTime="0.00" timeLoss="35.26" rerouteNo="0" devices="tripinfo_flow04.5" vType="CarA" speedFactor="1.00" vaporized=""/>
    <tripinfo id="flow04.6" depart="66.00" departLane="s_t_0" departPos="5.10" departSpeed="0.00" departDelay="1.97" arrival="122.00" arrivalLane="t_n_0" arrivalPos="136.25" arrivalSpeed="15.82" duration="56.00" routeLength="294.90" waitingTime="24.00" waitingCount="1" stopTime="0.00" timeLoss="38.37" rerouteNo="0" devices="tripinfo_flow04.6" vType="CarA" speedFactor="1.21" vaporized=""/>
    <tripinfo id="flow04.7" depart="75.00" departLane="s_t_0" departPos="5.10" departSpeed="0.00" departDelay="0.84" arrival="124.00" arrivalLane="t_n_0" arrivalPos="136.25" arrivalSpeed="14.75" duration="49.00" routeLength="294.90" waitingTime="16.00" waitingCount="1" stopTime="0.00" timeLoss="28.87" rerouteNo="0" devices="tripinfo_flow04.7" vType="CarA" speedFactor="1.07" vaporized=""/>
    <tripinfo id="flow04.8" depart="86.00" departLane="s_t_0" departPos="5.10" departSpeed="0.00" departDelay="0.56" arrival="127.00" arrivalLane="t_n_0" arrivalPos="136.25" arrivalSpeed="13.72" duration="41.00" routeLength="294.90" waitingTime="8.00" waitingCount="1" stopTime="0.00" timeLoss="18.69" rerouteNo="0" devices="tripinfo_flow04.8" vType="CarA" speedFactor="0.99" vaporized=""/>
    <tripinfo id="flow04.9" depart="96.00" departLane="s_t_0" departPos="5.10" departSpeed="0.00" departDelay="0.84" arrival="128.00" arrivalLane="t_n_0" arrivalPos="136.25" arrivalSpeed="13.97" duration="32.00" routeLength="294.90" waitingTime="0.00" waitingCount="0" stopTime="0.00" timeLoss="12.29" rerouteNo="0" devices="tripinfo_flow04.9" vType="CarA" speedFactor="1.09" vaporized=""/>
    <tripinfo id="flow06.5" depart="98.00" departLane="s_t_0" departPos="5.10" departSpeed="0.00" departDelay="2.46" arrival="128.00" arrivalLane="t_e_0" arrivalPos="136.25" arrivalSpeed="11.78" duration="30.00" routeLength="293.40" waitingTime="0.00" waitingCount="0" stopTime="0.00" timeLoss="4.94" rerouteNo="0" devices="tripinfo_flow06.5" vType="CarA" speedFactor="0.88" vaporized=""/>
    <tripinfo id="flow04.10" depart="99.00" departLane="s_t_0" departPos="5.10" departSpeed="0.00" departDelay="2.92" arrival="132.00" arrivalLane="t_n_0" arrivalPos="136.25" arrivalSpeed="11.71" duration="33.00" routeLength="294.90" waitingTime="0.00" waitingCount="0" stopTime="0.00" timeLoss="8.32" rerouteNo="0" devices="tripinfo_flow04.10" vType="CarA" speedFactor="0.88" vaporized=""/>
    <tripinfo id="flow04.11" depart="101.00" departLane="s_t_0" departPos="5.10" departSpeed="0.00" departDelay="2.80" arrival="133.00" arrivalLane="t_n_0" arrivalPos="136.25" arrivalSpeed="14.25" duration="32.00" routeLength="294.90" waitingTime="0.00" waitingCount="0" stopTime="0.00" timeLoss="12.16" rerouteNo="0" devices="tripinfo_flow04.11" vType="CarA" speedFactor="1.07" vaporized=""/>
    <tripinfo id="flow09.0" depart="1.00" departLane="w_t_0" departPos="5.10" departSpeed="0.00" departDelay="0.41" arrival="144.00" arrivalLane="t_n_0" arrivalPos="136.25" arrivalSpeed="13.24" duration="143.00" routeLength="279.21" waitingTime="113.00" waitingCount="1" stopTime="0.00" timeLoss="122.28" rerouteNo="0" devices="tripinfo_flow09.0" vType="CarA" speedFactor="1.02" vaporized=""/>
    <tripinfo id="flow07.0" depart="20.00" departLane="w_t_0" departPos="5.10" departSpeed="0.00" departDelay="0.74" arrival="145.00" arrivalLane="t_e_0" arrivalPos="136.25" arrivalSpeed="13.61" duration="125.00" routeLength="294.90" waitingTime="93.00" waitingCount="1" stopTime="0.00" timeLoss="102.57" rerouteNo="0" devices="tripinfo_flow07.0" vType="CarA" speedFactor="0.98" vaporized=""/>
    <tripinfo id="flow09.1" depart="4.00" departLane="w_t_0" departPos="5.10" departSpeed="0.00" departDelay="3.28" arrival="147.00" arrivalLane="t_n_0" arrivalPos="136.25" arrivalSpeed="13.12" duration="143.00" routeLength="279.21" waitingTime="112.00" waitingCount="1" stopTime="0.00" timeLoss="120.22" rerouteNo="0" devices="tripinfo_flow09.1" vType="CarA" speedFactor="0.95" vaporized=""/>
    <tripinfo id="flow07.1" depart="35.00" departLane="w_t_0" departPos="5.10" departSpeed="0.00" departDelay="0.18" arrival="147.00" arrivalLane="t_e_0" arrivalPos="136.25" arrivalSpeed="11.96" duration="112.00" routeLength="294.90" waitingTime="80.00" waitingCount="1" stopTime="0.00" timeLoss="88.71" rerouteNo="0" devices="tripinfo_flow07.1" vType="CarA" speedFactor="0.92" vaporized=""/>
    <tripinfo id="flow08.0" depart="10.00" departLane="w_t_0" departPos="5.10" departSpeed="0.00" departDelay="3.10" arrival="148.00" arrivalLane="t_s_0" arrivalPos="136.25" arrivalSpeed="10.62" duration="138.00" routeLength="293.40" waitingTime="102.00" waitingCount="1" stopTime="0.00" timeLoss="110.19" rerouteNo="0" devices="tripinfo_flow08.0" vType="CarA" speedFactor="0.79" vaporized=""/>
    <tripinfo id="flow08.1" depart="23.00" departLane="w_t_0" departPos="5.10" departSpeed="0.00" departDelay="3.28" arrival="150.00" arrivalLane="t_s_0" arrivalPos="136.25" arrivalSpeed="13.89" duration="127.00" routeLength="293.40" waitingTime="92.00" waitingCount="1" stopTime="0.00" timeLoss="104.56" rerouteNo="0" devices="tripinfo_flow08.1" vType="CarA" speedFactor="1.01" vaporized=""/>
    <tripinfo id="flow02.6" depart="94.00" departLane="n_t_0" departPos="5.10" departSpeed="0.00" departDelay="0.25" arrival="152.00" arrivalLane="t_w_0" arrivalPos="136.25" arrivalSpeed="16.50" duration="58.00" routeLength="293.40" waitingTime="30.00" waitingCount="1" stopTime="0.00" timeLoss="39.67" rerouteNo="0" devices="tripinfo_flow02.6" vType="CarA" speedFactor="1.19" vaporized=""/>
    <tripinfo id="flow03.7" depart="103.00" departLane="n_t_0" departPos="5.10" departSpeed="0.00" departDelay="2.32" arrival="153.00" arrivalLane="t_e_0" arrivalPos="136.25" arrivalSpeed="13.22" duration="50.00" routeLength="279.21" waitingTime="20.00" waitingCount="1" stopTime="0.00" timeLoss="27.76" rerouteNo="0" devices="tripinfo_flow03.7" vType="CarA" speedFactor="0.96" vaporized=""/>
    <tripinfo id="flow01.5" depart="85.00" departLane="n_t_0" departPos="5.10" departSpeed="0.00" departDelay="0.33" arrival="156.00" arrivalLane="t_s_0" arrivalPos="136.25" arrivalSpeed="11.48" duration="71.00" routeLength="294.90" waitingTime="35.00" waitingCount="1" stopTime="0.00" timeLoss="44.90" rerouteNo="0" devices="tripinfo_flow01.5" vType="CarA" speedFactor="0.84" vaporized=""/>
    <tripinfo id="flow02.7" depart="99.00" departLane="n_t_0" departPos="5.10" departSpeed="0.00" departDelay="0.93" arrival="156.00" arrivalLane="t_w_0" arrivalPos="136.25" arrivalSpeed="12.84" duration="57.00" routeLength="293.40" waitingTime="24.00" waitingCount="1" stopTime="0.00" timeLoss="34.47" rerouteNo="0" devices="tripinfo_flow02.7" vType="CarA" speedFactor="0.98" vaporized=""/>
    <tripinfo id="flow01.6" depart="89.00" departLane="n_t_0" departPos="5.10" departSpeed="0.00" departDelay="0.50" arrival="157.00" arrivalLane="t_s_0" arrivalPos="136.25" arrivalSpeed="13.72" duration="68.00" routeLength="294.90" waitingTime="35.00" waitingCount="1" stopTime="0.00" timeLoss="49.39" rerouteNo="0" devices="tripinfo_flow01.6" vType="CarA" speedFactor="1.15" vaporized=""/>
    <tripinfo id="flow02.8" depart="109.00" departLane="n_t_0" departPos="5.10" departSpeed="0.00" departDelay="0.65" arrival="158.00" arrivalLane="t_w_0" arrivalPos="136.25" arrivalSpeed="13.81" duration="49.00" routeLength="293.40" waitingTime="16.00" waitingCount="1" stopTime="0.00" timeLoss="27.40" rerouteNo="0" devices="tripinfo_flow02.8" vType="CarA" speedFactor="1.04" vaporized=""/>
    <tripinfo id="flow01.7" depart="101.00" departLane="n_t_0" departPos="5.10" departSpeed="0.00" departDelay="1.08" arrival="159.00" arrivalLane="t_s_0" arrivalPos="136.25" arrivalSpeed="11.63" duration="58.00" routeLength="294.90" waitingTime="24.00" waitingCount="1" stopTime="0.00" timeLoss="34.16" rerouteNo="0" devices="tripinfo_flow01.7" vType="CarA" speedFactor="0.90" vaporized=""/>
    <tripinfo id="flow02.9" depart="116.00" departLane="n_t_0" departPos="5.10" departSpeed="0.00" departDelay="0.86" arrival="160.00" arrivalLane="t_w_0" arrivalPos="136.25" arrivalSpeed="14.98" duration="44.00" routeLength="293.40" waitingTime="11.00" waitingCount="1" stopTime="0.00" timeLoss="23.23" rerouteNo="0" devices="tripinfo_flow02.9" vType="CarA" speedFactor="1.09" vaporized=""/>
    <tripinfo id="flow01.8" depart="106.00" departLane="n_t_0" departPos="5.10" departSpeed="0.00" departDelay="1.09" arrival="161.00" arrivalLane="t_s_0" arrivalPos="136.25" arrivalSpeed="14.45" duration="55.00" routeLength="294.90" waitingTime="22.00" waitingCount="1" stopTime="0.00" timeLoss="35.60" rerouteNo="0" devices="tripinfo_flow01.8" vType="CarA" speedFactor="1.13" vaporized=""/>
    <tripinfo id="flow02.10" depart="126.00" departLane="n_t_0" departPos="5.10" departSpeed="0.00" departDelay="0.61" arrival="162.00" arrivalLane="t_w_0" arrivalPos="136.25" arrivalSpeed="12.98" duration="36.00" routeLength="293.40" waitingTime="2.00" waitingCount="1" stopTime="0.00" timeLoss="12.99" rerouteNo="0" devices="tripinfo_flow02.10" vType="CarA" speedFactor="0.95" vaporized=""/>
    <tripinfo id="flow01.9" depart="129.00" departLane="n_t_0" departPos="5.10" departSpeed="0.00" departDelay="0.08" arrival="162.00" arrivalLane="t_s_0" arrivalPos="136.25" arrivalSpeed="14.73" duration="33.00" routeLength="294.90" waitingTime="1.00" waitingCount="1" stopTime="0.00" timeLoss="13.28" rerouteNo="0" devices="tripinfo_flow01.9" vType="CarA" speedFactor="1.08" vaporized=""/>
    <tripinfo id="flow01.10" depart="132.00" departLane="n_t_0" departPos="5.10" departSpeed="0.00" departDelay="0.48" arrival="164.00" arrivalLane="t_s_0" arrivalPos="136.25" arrivalSpeed="13.79" duration="32.00" routeLength="294.90" waitingTime="0.00" waitingCount="0" stopTime="0.00" timeLoss="11.13" rerouteNo="0" devices="tripinfo_flow01.10" vType="CarA" speedFactor="1.03" vaporized=""/>
    <tripinfo id="flow01.11" depart="134.00" departLane="n_t_0" departPos="5.10" departSpeed="0.00" departDelay="1.52" arrival="166.00" arrivalLane="t_s_0" arrivalPos="136.25" arrivalSpeed="14.47" duration="32.00" routeLength="294.90" waitingTime="0.00" waitingCount="0" stopTime="0.00" timeLoss="12.48" rerouteNo="0" devices="tripinfo_flow01.11" vType="CarA" speedFactor="1.12" vaporized=""/>
    <tripinfo id="flow01.12" depart="136.00" departLane="n_t_0" departPos="5.10" departSpeed="0.00" departDelay="2.05" arrival="168.00" arrivalLane="t_s_0" arrivalPos="136.25" arrivalSpeed="14.47" duration="32.00" routeLength="294.90" waitingTime="0.00" waitingCount="0" stopTime="0.00" timeLoss="11.84" rerouteNo="0" devices="tripinfo_flow01.12" vType="CarA" speedFactor="1.10" vaporized=""/>
    <tripinfo id="flow01.13" depart="144.00" departLane="n_t_0" departPos="5.10" departSpeed="0.00" departDelay="0.65" arrival="171.00" arrivalLane="t_s_0" arrivalPos="136.25" arrivalSpeed="11.69" duration="27.00" routeLength="294.90" waitingTime="0.00" waitingCount="0" stopTime="0.00" timeLoss="3.97" rerouteNo="0" devices="tripinfo_flow01.13" vType="CarA" speedFactor="0.93" vaporized=""/>
    <tripinfo id="flow02.11" depart="146.00" departLane="n_t_0" departPos="5.10" departSpeed="0.00" departDelay="2.37" arrival="172.00" arrivalLane="t_w_0" arrivalPos="136.25" arrivalSpeed="14.78" duration="26.00" routeLength="293.40" waitingTime="0.00" waitingCount="0" stopTime="0.00" timeLoss="4.59" rerouteNo="0" devices="tripinfo_flow02.11" vType="CarA" speedFactor="1.07" vaporized=""/>
    <tripinfo id="flow05.4" depart="112.00" departLane="s_t_0" departPos="5.10" departSpeed="0.00" departDelay="0.34" arrival="182.00" arrivalLane="t_w_0" arrivalPos="136.25" arrivalSpeed="12.20" duration="70.00" routeLength="279.21" waitingTime="39.00" waitingCount="1" stopTime="0.00" timeLoss="47.10" rerouteNo="0" devices="tripinfo_flow05.4" vType="CarA" speedFactor="0.92" vaporized=""/>
    <tripinfo id="flow04.12" depart="118.00" departLane="s_t_0" departPos="5.10" departSpeed="0.00" departDelay="0.51" arrival="182.00" arrivalLane="t_n_0" arrivalPos="136.25" arrivalSpeed="13.42" duration="64.00" routeLength="294.90" waitingTime="31.00" waitingCount="1" stopTime="0.00" timeLoss="41.68" rerouteNo="0" devices="tripinfo_flow04.12" vType="CarA" speedFactor="0.97" vaporized=""/>
    <tripinfo id="flow05.5" depart="115.00" departLane="s_t_0" departPos="5.10" departSpeed="0.00" departDelay="0.13" arrival="184.00" arrivalLane="t_w_0" arrivalPos="136.25" arrivalSpeed="12.34" duration="69.00" routeLength="279.21" waitingTime="36.00" waitingCount="1" stopTime="0.00" timeLoss="46.59" rerouteNo="0" devices="tripinfo_flow05.5" vType="CarA" speedFactor="0.95" vaporized=""/>
    <tripinfo id="flow04.13" depart="122.00" departLane="s_t_0" departPos="5.10" departSpeed="0.00" departDelay="0.22" arrival="184.00" arrivalLane="t_n_0" arrivalPos="136.25" arrivalSpeed="14.86" duration="62.00" routeLength="294.90" waitingTime="30.00" waitingCount="1" stopTime="0.00" timeLoss="41.88" rerouteNo="0" devices="tripinfo_flow04.13" vType="CarA" speedFactor="1.10" vaporized=""/>
    <tripinfo id="flow06.6" depart="134.00" departLane="s_t_0" departPos="5.10" departSpeed="0.00" departDelay="0.49" arrival="184.00" arrivalLane="t_e_0" arrivalPos="136.25" arrivalSpeed="11.42" duration="50.00" routeLength="293.40" waitingTime="15.00" waitingCount="1" stopTime="0.00" timeLoss="24.26" rerouteNo="0" devices="tripinfo_flow06.6" vType="CarA" speedFactor="0.85" vaporized=""/>
    <tripinfo id="flow04.14" depart="127.00" departLane="s_t_0" departPos="5.10" departSpeed="0.00" departDelay="0.01" arrival="185.00" arrivalLane="t_n_0" arrivalPos="136.25" arrivalSpeed="14.88" duration="58.00" routeLength="294.90" waitingTime="27.00" waitingCount="1" stopTime="0.00" timeLoss="38.13" rerouteNo="0" devices="tripinfo_flow04.14" vType="CarA" speedFactor="1.08" vaporized=""/>