<?xml version="1.0" encoding="UTF-8"?>

<!-- generated on 2024-07-07 16:50:00 by Eclipse SUMO libsumo Version 1.20.0
<configuration xmlns:xsi="http://www.w3.org/2001/XMLSchema-instance" xsi:noNamespaceSchemaLocation="http://sumo.dlr.de/xsd/libsumoConfiguration.xsd">

    <input>
        <net-file value="sumo_rl/nets/2way-single-intersection/single-intersection-4.net.xml"/>
        <route-files value="/root/autodl-tmp/outputs/2024-07-07/16-49-54-1684/output.rou.xml"/>
    </input>

    <output>
        <tripinfo-output value="/root/autodl-tmp/outputs/2024-07-07/16-49-54-1684/tripinfos-2.xml"/>
    </output>

    <processing>
        <time-to-teleport value="-1"/>
        <waiting-time-memory value="1000"/>
        <max-depart-delay value="-1"/>
    </processing>

    <random_number>
        <seed value="26"/>
    </random_number>

</configuration>
-->

<tripinfos xmlns:xsi="http://www.w3.org/2001/XMLSchema-instance" xsi:noNamespaceSchemaLocation="http://sumo.dlr.de/xsd/tripinfo_file.xsd">
    <tripinfo id="flow05.0" depart="5.00" departLane="s_t_0" departPos="5.10" departSpeed="0.00" departDelay="0.88" arrival="30.00" arrivalLane="t_w_0" arrivalPos="136.25" arrivalSpeed="15.71" duration="25.00" routeLength="279.21" waitingTime="0.00" waitingCount="0" stopTime="0.00" timeLoss="5.76" rerouteNo="0" devices="tripinfo_flow05.0" vType="CarA" speedFactor="1.15" vaporized=""/>
    <tripinfo id="flow06.0" depart="10.00" departLane="s_t_0" departPos="5.10" departSpeed="0.00" departDelay="0.92" arrival="36.00" arrivalLane="t_e_0" arrivalPos="136.25" arrivalSpeed="12.62" duration="26.00" routeLength="293.40" waitingTime="0.00" waitingCount="0" stopTime="0.00" timeLoss="4.20" rerouteNo="0" devices="tripinfo_flow06.0" vType="CarA" speedFactor="1.00" vaporized=""/>
    <tripinfo id="flow04.0" depart="13.00" departLane="s_t_0" departPos="5.10" departSpeed="0.00" departDelay="0.01" arrival="38.00" arrivalLane="t_n_0" arrivalPos="136.25" arrivalSpeed="13.36" duration="25.00" routeLength="294.90" waitingTime="0.00" waitingCount="0" stopTime="0.00" timeLoss="4.03" rerouteNo="0" devices="tripinfo_flow04.0" vType="CarA" speedFactor="1.02" vaporized=""/>
    <tripinfo id="flow05.1" depart="16.00" departLane="s_t_0" departPos="5.10" departSpeed="0.00" departDelay="0.93" arrival="40.00" arrivalLane="t_w_0" arrivalPos="136.25" arrivalSpeed="15.53" duration="24.00" routeLength="279.21" waitingTime="0.00" waitingCount="0" stopTime="0.00" timeLoss="5.68" rerouteNo="0" devices="tripinfo_flow05.1" vType="CarA" speedFactor="1.15" vaporized=""/>
    <tripinfo id="flow04.1" depart="20.00" departLane="s_t_0" departPos="5.10" departSpeed="0.00" departDelay="0.43" arrival="46.00" arrivalLane="t_n_0" arrivalPos="136.25" arrivalSpeed="12.89" duration="26.00" routeLength="294.90" waitingTime="0.00" waitingCount="0" stopTime="0.00" timeLoss="4.19" rerouteNo="0" devices="tripinfo_flow04.1" vType="CarA" speedFactor="0.99" vaporized=""/>
    <tripinfo id="flow04.2" depart="29.00" departLane="s_t_0" departPos="5.10" departSpeed="0.00" departDelay="0.30" arrival="54.00" arrivalLane="t_n_0" arrivalPos="136.25" arrivalSpeed="12.93" duration="25.00" routeLength="294.90" waitingTime="0.00" waitingCount="0" stopTime="0.00" timeLoss="3.99" rerouteNo="0" devices="tripinfo_flow04.2" vType="CarA" speedFactor="1.02" vaporized=""/>
    <tripinfo id="flow04.3" depart="35.00" departLane="s_t_0" departPos="5.10" departSpeed="0.00" departDelay="0.29" arrival="60.00" arrivalLane="t_n_0" arrivalPos="136.25" arrivalSpeed="13.99" duration="25.00" routeLength="294.90" waitingTime="0.00" waitingCount="0" stopTime="0.00" timeLoss="3.91" rerouteNo="0" devices="tripinfo_flow04.3" vType="CarA" speedFactor="1.02" vaporized=""/>
    <tripinfo id="flow06.1" depart="38.00" departLane="s_t_0" departPos="5.10" departSpeed="0.00" departDelay="3.38" arrival="63.00" arrivalLane="t_e_0" arrivalPos="136.25" arrivalSpeed="13.78" duration="25.00" routeLength="293.40" waitingTime="0.00" waitingCount="0" stopTime="0.00" timeLoss="4.45" rerouteNo="0" devices="tripinfo_flow06.1" vType="CarA" speedFactor="1.07" vaporized=""/>
    <tripinfo id="flow04.4" depart="40.00" departLane="s_t_0" departPos="5.10" departSpeed="0.00" departDelay="0.76" arrival="67.00" arrivalLane="t_n_0" arrivalPos="136.25" arrivalSpeed="12.07" duration="27.00" routeLength="294.90" waitingTime="0.00" waitingCount="0" stopTime="0.00" timeLoss="3.44" rerouteNo="0" devices="tripinfo_flow04.4" vType="CarA" speedFactor="0.92" vaporized=""/>
    <tripinfo id="flow05.2" depart="44.00" departLane="s_t_0" departPos="5.10" departSpeed="0.00" departDelay="4.75" arrival="70.00" arrivalLane="t_w_0" arrivalPos="136.25" arrivalSpeed="13.39" duration="26.00" routeLength="279.21" waitingTime="0.00" waitingCount="0" stopTime="0.00" timeLoss="4.89" rerouteNo="0" devices="tripinfo_flow05.2" vType="CarA" speedFactor="1.03" vaporized=""/>
    <tripinfo id="flow04.5" depart="42.00" departLane="s_t_0" departPos="5.10" departSpeed="0.00" departDelay="2.50" arrival="71.00" arrivalLane="t_n_0" arrivalPos="136.25" arrivalSpeed="10.89" duration="29.00" routeLength="294.90" waitingTime="0.00" waitingCount="0" stopTime="0.00" timeLoss="3.97" rerouteNo="0" devices="tripinfo_flow04.5" vType="CarA" speedFactor="0.86" vaporized=""/>
    <tripinfo id="flow05.3" depart="47.00" departLane="s_t_0" departPos="5.10" departSpeed="0.00" departDelay="0.27" arrival="73.00" arrivalLane="t_w_0" arrivalPos="136.25" arrivalSpeed="13.29" duration="26.00" routeLength="279.21" waitingTime="0.00" waitingCount="0" stopTime="0.00" timeLoss="5.57" rerouteNo="0" devices="tripinfo_flow05.3" vType="CarA" speedFactor="1.02" vaporized=""/>
    <tripinfo id="flow03.0" depart="11.00" departLane="n_t_0" departPos="5.10" departSpeed="0.00" departDelay="0.76" arrival="79.00" arrivalLane="t_e_0" arrivalPos="136.25" arrivalSpeed="14.91" duration="68.00" routeLength="279.21" waitingTime="39.00" waitingCount="1" stopTime="0.00" timeLoss="49.72" rerouteNo="0" devices="tripinfo_flow03.0" vType="CarA" speedFactor="1.14" vaporized=""/>
    <tripinfo id="flow02.0" depart="6.00" departLane="n_t_0" departPos="5.10" departSpeed="0.00" departDelay="0.72" arrival="82.00" arrivalLane="t_w_0" arrivalPos="136.25" arrivalSpeed="12.81" duration="76.00" routeLength="293.40" waitingTime="44.00" waitingCount="1" stopTime="0.00" timeLoss="54.08" rerouteNo="0" devices="tripinfo_flow02.0" vType="CarA" speedFactor="1.01" vaporized=""/>
    <tripinfo id="flow01.0" depart="14.00" departLane="n_t_0" departPos="5.10" departSpeed="0.00" departDelay="1.47" arrival="83.00" arrivalLane="t_s_0" arrivalPos="136.25" arrivalSpeed="12.13" duration="69.00" routeLength="294.90" waitingTime="37.00" waitingCount="1" stopTime="0.00" timeLoss="44.88" rerouteNo="0" devices="tripinfo_flow01.0" vType="CarA" speedFactor="0.89" vaporized=""/>
    <tripinfo id="flow03.1" depart="26.00" departLane="n_t_0" departPos="5.10" departSpeed="0.00" departDelay="0.94" arrival="83.00" arrivalLane="t_e_0" arrivalPos="136.25" arrivalSpeed="13.90" duration="57.00" routeLength="279.21" waitingTime="27.00" waitingCount="1" stopTime="0.00" timeLoss="36.39" rerouteNo="0" devices="tripinfo_flow03.1" vType="CarA" speedFactor="1.04" vaporized=""/>
    <tripinfo id="flow03.2" depart="29.00" departLane="n_t_0" departPos="5.10" departSpeed="0.00" departDelay="3.34" arrival="84.00" arrivalLane="t_e_0" arrivalPos="136.25" arrivalSpeed="15.33" duration="55.00" routeLength="279.21" waitingTime="25.00" waitingCount="1" stopTime="0.00" timeLoss="38.21" rerouteNo="0" devices="tripinfo_flow03.2" vType="CarA" speedFactor="1.23" vaporized=""/>
    <tripinfo id="flow02.1" depart="9.00" departLane="n_t_0" departPos="5.10" departSpeed="0.00" departDelay="0.52" arrival="85.00" arrivalLane="t_w_0" arrivalPos="136.25" arrivalSpeed="12.52" duration="76.00" routeLength="293.40" waitingTime="43.00" waitingCount="1" stopTime="0.00" timeLoss="51.98" rerouteNo="0" devices="tripinfo_flow02.1" vType="CarA" speedFactor="0.92" vaporized=""/>
    <tripinfo id="flow01.1" depart="18.00" departLane="n_t_0" departPos="5.10" departSpeed="0.00" departDelay="0.63" arrival="85.00" arrivalLane="t_s_0" arrivalPos="136.25" arrivalSpeed="13.39" duration="67.00" routeLength="294.90" waitingTime="34.00" waitingCount="1" stopTime="0.00" timeLoss="45.69" rerouteNo="0" devices="tripinfo_flow01.1" vType="CarA" speedFactor="1.02" vaporized=""/>
    <tripinfo id="flow01.2" depart="21.00" departLane="n_t_0" departPos="5.10" departSpeed="0.00" departDelay="0.72" arrival="86.00" arrivalLane="t_s_0" arrivalPos="136.25" arrivalSpeed="15.37" duration="65.00" routeLength="294.90" waitingTime="34.00" waitingCount="1" stopTime="0.00" timeLoss="46.96" rerouteNo="0" devices="tripinfo_flow01.2" vType="CarA" speedFactor="1.18" vaporized=""/>
    <tripinfo id="flow02.2" depart="17.00" departLane="n_t_0" departPos="5.10" departSpeed="0.00" departDelay="0.87" arrival="87.00" arrivalLane="t_w_0" arrivalPos="136.25" arrivalSpeed="13.30" duration="70.00" routeLength="293.40" waitingTime="36.00" waitingCount="1" stopTime="0.00" timeLoss="47.06" rerouteNo="0" devices="tripinfo_flow02.2" vType="CarA" speedFactor="0.97" vaporized=""/>
    <tripinfo id="flow01.3" depart="35.00" departLane="n_t_0" departPos="5.10" departSpeed="0.00" departDelay="0.78" arrival="88.00" arrivalLane="t_s_0" arrivalPos="136.25" arrivalSpeed="13.39" duration="53.00" routeLength="294.90" waitingTime="20.00" waitingCount="1" stopTime="0.00" timeLoss="32.39" rerouteNo="0" devices="tripinfo_flow01.3" vType="CarA" speedFactor="1.04" vaporized=""/>
    <tripinfo id="flow03.3" depart="53.00" departLane="n_t_0" departPos="5.10" departSpeed="0.00" departDelay="0.83" arrival="88.00" arrivalLane="t_e_0" arrivalPos="136.25" arrivalSpeed="13.41" duration="35.00" routeLength="279.21" waitingTime="2.00" waitingCount="1" stopTime="0.00" timeLoss="13.79" rerouteNo="0" devices="tripinfo_flow03.3" vType="CarA" speedFactor="1.00" vaporized=""/>
    <tripinfo id="flow01.4" depart="40.00" departLane="n_t_0" departPos="5.10" departSpeed="0.00" departDelay="2.22" arrival="90.00" arrivalLane="t_s_0" arrivalPos="136.25" arrivalSpeed="14.21" duration="50.00" routeLength="294.90" waitingTime="16.00" waitingCount="1" stopTime="0.00" timeLoss="29.40" rerouteNo="0" devices="tripinfo_flow01.4" vType="CarA" speedFactor="1.05" vaporized=""/>
    <tripinfo id="flow02.3" depart="38.00" departLane="n_t_0" departPos="5.10" departSpeed="0.00" departDelay="2.13" arrival="91.00" arrivalLane="t_w_0" arrivalPos="136.25" arrivalSpeed="10.72" duration="53.00" routeLength="293.40" waitingTime="16.00" waitingCount="1" stopTime="0.00" timeLoss="26.21" rerouteNo="0" devices="tripinfo_flow02.3" vType="CarA" speedFactor="0.83" vaporized=""/>
    <tripinfo id="flow01.5" depart="43.00" departLane="n_t_0" departPos="5.10" departSpeed="0.00" departDelay="5.18" arrival="92.00" arrivalLane="t_s_0" arrivalPos="136.25" arrivalSpeed="12.57" duration="49.00" routeLength="294.90" waitingTime="14.00" waitingCount="1" stopTime="0.00" timeLoss="27.03" rerouteNo="0" devices="tripinfo_flow01.5" vType="CarA" speedFactor="0.99" vaporized=""/>
    <tripinfo id="flow03.4" depart="57.00" departLane="n_t_0" departPos="5.10" departSpeed="0.00" departDelay="1.46" arrival="92.00" arrivalLane="t_e_0" arrivalPos="136.25" arrivalSpeed="11.79" duration="35.00" routeLength="279.21" waitingTime="0.00" waitingCount="0" stopTime="0.00" timeLoss="11.88" rerouteNo="0" devices="tripinfo_flow03.4" vType="CarA" speedFactor="0.94" vaporized=""/>
    <tripinfo id="flow02.4" depart="48.00" departLane="n_t_0" departPos="5.10" departSpeed="0.00" departDelay="2.41" arrival="93.00" arrivalLane="t_w_0" arrivalPos="136.25" arrivalSpeed="13.85" duration="45.00" routeLength="293.40" waitingTime="8.00" waitingCount="1" stopTime="0.00" timeLoss="22.73" rerouteNo="0" devices="tripinfo_flow02.4" vType="CarA" speedFactor="1.01" vaporized=""/>
    <tripinfo id="flow01.6" depart="46.00" departLane="n_t_0" departPos="5.10" departSpeed="0.00" departDelay="0.60" arrival="94.00" arrivalLane="t_s_0" arrivalPos="136.25" arrivalSpeed="11.74" duration="48.00" routeLength="294.90" waitingTime="13.00" waitingCount="1" stopTime="0.00" timeLoss="25.06" rerouteNo="0" devices="tripinfo_flow01.6" vType="CarA" speedFactor="0.93" vaporized=""/>
    <tripinfo id="flow02.5" depart="56.00" departLane="n_t_0" departPos="5.10" departSpeed="0.00" departDelay="2.43" arrival="94.00" arrivalLane="t_w_0" arrivalPos="136.25" arrivalSpeed="12.12" duration="38.00" routeLength="293.40" waitingTime="4.00" waitingCount="1" stopTime="0.00" timeLoss="15.01" rerouteNo="0" devices="tripinfo_flow02.5" vType="CarA" speedFactor="0.95" vaporized=""/>
    <tripinfo id="flow02.6" depart="60.00" departLane="n_t_0" departPos="5.10" departSpeed="0.00" departDelay="0.46" arrival="96.00" arrivalLane="t_w_0" arrivalPos="136.25" arrivalSpeed="12.63" duration="36.00" routeLength="293.40" waitingTime="1.00" waitingCount="1" stopTime="0.00" timeLoss="12.82" rerouteNo="0" devices="tripinfo_flow02.6" vType="CarA" speedFactor="0.95" vaporized=""/>
    <tripinfo id="flow01.7" depart="65.00" departLane="n_t_0" departPos="5.10" departSpeed="0.00" departDelay="0.47" arrival="96.00" arrivalLane="t_s_0" arrivalPos="136.25" arrivalSpeed="12.56" duration="31.00" routeLength="294.90" waitingTime="0.00" waitingCount="0" stopTime="0.00" timeLoss="7.73" rerouteNo="0" devices="tripinfo_flow01.7" vType="CarA" speedFactor="0.92" vaporized=""/>
    <tripinfo id="flow02.7" depart="69.00" departLane="n_t_0" departPos="5.10" departSpeed="0.00" departDelay="0.68" arrival="98.00" arrivalLane="t_w_0" arrivalPos="136.25" arrivalSpeed="11.84" duration="29.00" routeLength="293.40" waitingTime="0.00" waitingCount="0" stopTime="0.00" timeLoss="4.49" rerouteNo="0" devices="tripinfo_flow02.7" vType="CarA" speedFactor="0.89" vaporized=""/>
    <tripinfo id="flow02.9" depart="72.00" departLane="n_t_0" departPos="5.10" departSpeed="0.00" departDelay="0.18" arrival="100.00" arrivalLane="t_w_0" arrivalPos="136.25" arrivalSpeed="13.22" duration="28.00" routeLength="293.40" waitingTime="0.00" waitingCount="0" stopTime="0.00" timeLoss="6.22" rerouteNo="0" devices="tripinfo_flow02.9" vType="CarA" speedFactor="1.02" vaporized=""/>
    <tripinfo id="flow02.8" depart="70.00" departLane="n_t_0" departPos="5.10" departSpeed="0.00" departDelay="0.64" arrival="102.00" arrivalLane="t_w_0" arrivalPos="136.25" arrivalSpeed="13.32" duration="32.00" routeLength="293.40" waitingTime="0.00" waitingCount="0" stopTime="0.00" timeLoss="8.87" rerouteNo="0" devices="tripinfo_flow02.8" vType="CarA" speedFactor="0.97" vaporized=""/>
    <tripinfo id="flow01.8" depart="75.00" departLane="n_t_0" departPos="5.10" departSpeed="0.00" departDelay="0.96" arrival="102.00" arrivalLane="t_s_0" arrivalPos="136.25" arrivalSpeed="12.46" duration="27.00" routeLength="294.90" waitingTime="0.00" waitingCount="0" stopTime="0.00" timeLoss="3.75" rerouteNo="0" devices="tripinfo_flow01.8" vType="CarA" speedFactor="0.93" vaporized=""/>
    <tripinfo id="flow03.5" depart="79.00" departLane="n_t_0" departPos="5.10" departSpeed="0.00" departDelay="3.76" arrival="102.00" arrivalLane="t_e_0" arrivalPos="136.25" arrivalSpeed="15.59" duration="23.00" routeLength="279.21" waitingTime="0.00" waitingCount="0" stopTime="0.00" timeLoss="5.72" rerouteNo="0" devices="tripinfo_flow03.5" vType="CarA" speedFactor="1.20" vaporized=""/>
    <tripinfo id="flow02.10" depart="77.00" departLane="n_t_0" departPos="5.10" departSpeed="0.00" departDelay="1.78" arrival="104.00" arrivalLane="t_w_0" arrivalPos="136.25" arrivalSpeed="13.38" duration="27.00" routeLength="293.40" waitingTime="0.00" waitingCount="0" stopTime="0.00" timeLoss="4.10" rerouteNo="0" devices="tripinfo_flow02.10" vType="CarA" speedFactor="0.97" vaporized=""/>
    <tripinfo id="flow02.11" depart="78.00" departLane="n_t_0" departPos="5.10" departSpeed="0.00" departDelay="2.36" arrival="106.00" arrivalLane="t_w_0" arrivalPos="136.25" arrivalSpeed="12.01" duration="28.00" routeLength="293.40" waitingTime="0.00" waitingCount="0" stopTime="0.00" timeLoss="4.79" rerouteNo="0" devices="tripinfo_flow02.11" vType="CarA" speedFactor="0.93" vaporized=""/>
    <tripinfo id="flow03.6" depart="82.00" departLane="n_t_0" departPos="5.10" departSpeed="0.00" departDelay="5.49" arrival="112.00" arrivalLane="t_e_0" arrivalPos="136.25" arrivalSpeed="11.21" duration="30.00" routeLength="279.21" waitingTime="0.00" waitingCount="0" stopTime="0.00" timeLoss="5.46" rerouteNo="0" devices="tripinfo_flow03.6" vType="CarA" speedFactor="0.88" vaporized=""/>
    <tripinfo id="flow03.7" depart="85.00" departLane="n_t_0" departPos="5.10" departSpeed="0.00" departDelay="8.00" arrival="113.00" arrivalLane="t_e_0" arrivalPos="136.25" arrivalSpeed="12.88" duration="28.00" routeLength="279.21" waitingTime="0.00" waitingCount="0" stopTime="0.00" timeLoss="8.53" rerouteNo="0" devices="tripinfo_flow03.7" vType="CarA" speedFactor="1.09" vaporized=""/>
    <tripinfo id="flow01.9" depart="88.00" departLane="n_t_0" departPos="5.10" departSpeed="0.00" departDelay="9.08" arrival="116.00" arrivalLane="t_s_0" arrivalPos="136.25" arrivalSpeed="12.07" duration="28.00" routeLength="294.90" waitingTime="0.00" waitingCount="0" stopTime="0.00" timeLoss="3.34" rerouteNo="0" devices="tripinfo_flow01.9" vType="CarA" speedFactor="0.88" vaporized=""/>
    <tripinfo id="flow01.10" depart="90.00" departLane="n_t_0" departPos="5.10" departSpeed="0.00" departDelay="9.76" arrival="119.00" arrivalLane="t_s_0" arrivalPos="136.25" arrivalSpeed="11.95" duration="29.00" routeLength="294.90" waitingTime="0.00" waitingCount="0" stopTime="0.00" timeLoss="3.64" rerouteNo="0" devices="tripinfo_flow01.10" vType="CarA" speedFactor="0.86" vaporized=""/>
    <tripinfo id="flow05.4" depart="58.00" departLane="s_t_0" departPos="5.10" departSpeed="0.00" departDelay="6.78" arrival="128.00" arrivalLane="t_w_0" arrivalPos="136.25" arrivalSpeed="12.73" duration="70.00" routeLength="279.21" waitingTime="41.00" waitingCount="1" stopTime="0.00" timeLoss="49.06" rerouteNo="0" devices="tripinfo_flow05.4" vType="CarA" speedFactor="1.01" vaporized=""/>
    <tripinfo id="flow04.6" depart="50.00" departLane="s_t_0" departPos="5.10" departSpeed="0.00" departDelay="2.79" arrival="129.00" arrivalLane="t_n_0" arrivalPos="136.25" arrivalSpeed="12.54" duration="79.00" routeLength="294.90" waitingTime="47.00" waitingCount="1" stopTime="0.00" timeLoss="56.88" rerouteNo="0" devices="tripinfo_flow04.6" vType="CarA" speedFactor="0.99" vaporized=""/>
    <tripinfo id="flow06.2" depart="53.00" departLane="s_t_0" departPos="5.10" departSpeed="0.00" departDelay="4.52" arrival="129.00" arrivalLane="t_e_0" arrivalPos="136.25" arrivalSpeed="11.76" duration="76.00" routeLength="293.40" waitingTime="43.00" waitingCount="1" stopTime="0.00" timeLoss="52.22" rerouteNo="0" devices="tripinfo_flow06.2" vType="CarA" speedFactor="0.92" vaporized=""/>
    <tripinfo id="flow04.7" depart="55.00" departLane="s_t_0" departPos="5.10" departSpeed="0.00" departDelay="3.07" arrival="130.00" arrivalLane="t_n_0" arrivalPos="136.25" arrivalSpeed="14.54" duration="75.00" routeLength="294.90" waitingTime="45.00" waitingCount="1" stopTime="0.00" timeLoss="55.00" rerouteNo="0" devices="tripinfo_flow04.7" vType="CarA" speedFactor="1.06" vaporized=""/>
    <tripinfo id="flow05.5" depart="65.00" departLane="s_t_0" departPos="5.10" departSpeed="0.00" departDelay="8.65" arrival="131.00" arrivalLane="t_w_0" arrivalPos="136.25" arrivalSpeed="12.23" duration="66.00" routeLength="279.21" waitingTime="35.00" waitingCount="1" stopTime="0.00" timeLoss="43.01" rerouteNo="0" devices="tripinfo_flow05.5" vType="CarA" speedFactor="0.93" vaporized=""/>
    <tripinfo id="flow04.8" depart="61.00" departLane="s_t_0" departPos="5.10" departSpeed="0.00" departDelay="8.22" arrival="132.00" arrivalLane="t_n_0" arrivalPos="136.25" arrivalSpeed="14.59" duration="71.00" routeLength="294.90" waitingTime="41.00" waitingCount="1" stopTime="0.00" timeLoss="51.72" rerouteNo="0" devices="tripinfo_flow04.8" vType="CarA" speedFactor="1.12" vaporized=""/>
    <tripinfo id="flow05.6" depart="77.00" departLane="s_t_0" departPos="5.10" departSpeed="0.00" departDelay="0.60" arrival="133.00" arrivalLane="t_w_0" arrivalPos="136.25" arrivalSpeed="12.61" duration="56.00" routeLength="279.21" waitingTime="24.00" waitingCount="1" stopTime="0.00" timeLoss="33.68" rerouteNo="0" devices="tripinfo_flow05.6" vType="CarA" speedFactor="0.94" vaporized=""/>
    <tripinfo id="flow06.3" depart="63.00" departLane="s_t_0" departPos="5.10" departSpeed="0.00" departDelay="10.57" arrival="134.00" arrivalLane="t_e_0" arrivalPos="136.25" arrivalSpeed="10.18" duration="71.00" routeLength="293.40" waitingTime="36.00" waitingCount="1" stopTime="0.00" timeLoss="42.88" rerouteNo="0" devices="tripinfo_flow06.3" vType="CarA" speedFactor="0.79" vaporized=""/>
    <tripinfo id="flow04.9" depart="68.00" departLane="s_t_0" departPos="5.10" departSpeed="0.00" departDelay="10.55" arrival="135.00" arrivalLane="t_n_0" arrivalPos="136.25" arrivalSpeed="12.26" duration="67.00" routeLength="294.90" waitingTime="34.00" waitingCount="1" stopTime="0.00" timeLoss="43.99" rerouteNo="0" devices="tripinfo_flow04.9" vType="CarA" speedFactor="0.93" vaporized=""/>
    <tripinfo id="flow06.4" depart="75.00" departLane="s_t_0" departPos="5.10" departSpeed="0.00" departDelay="0.36" arrival="136.00" arrivalLane="t_e_0" arrivalPos="136.25" arrivalSpeed="11.84" duration="61.00" routeLength="293.40" waitingTime="25.00" waitingCount="1" stopTime="0.00" timeLoss="35.68" rerouteNo="0" devices="tripinfo_flow06.4" vType="CarA" speedFactor="0.89" vaporized=""/>
    <tripinfo id="flow06.5" depart="91.00" departLane="s_t_0" departPos="5.10" departSpeed="0.00" departDelay="0.15" arrival="137.00" arrivalLane="t_e_0" arrivalPos="136.25" arrivalSpeed="12.73" duration="46.00" routeLength="293.40" waitingTime="9.00" waitingCount="1" stopTime="0.00" timeLoss="26.83" rerouteNo="0" devices="tripinfo_flow06.5" vType="CarA" speedFactor="1.13" vaporized=""/>
    <tripinfo id="flow09.0" depart="6.00" departLane="w_t_0" departPos="5.10" departSpeed="0.00" departDelay="3.83" arrival="140.00" arrivalLane="t_n_0" arrivalPos="136.25" arrivalSpeed="12.95" duration="134.00" routeLength="279.21" waitingTime="104.00" waitingCount="1" stopTime="0.00" timeLoss="113.23" rerouteNo="0" devices="tripinfo_flow09.0" vType="CarA" speedFactor="1.02" vaporized=""/>
    <tripinfo id="flow08.0" depart="37.00" departLane="w_t_0" departPos="5.10" departSpeed="0.00" departDelay="0.92" arrival="140.00" arrivalLane="t_s_0" arrivalPos="136.25" arrivalSpeed="14.12" duration="103.00" routeLength="293.40" waitingTime="72.00" waitingCount="1" stopTime="0.00" timeLoss="82.65" rerouteNo="0" devices="tripinfo_flow08.0" vType="CarA" speedFactor="1.10" vaporized=""/>
    <tripinfo id="flow07.0" depart="3.00" departLane="w_t_0" departPos="5.10" departSpeed="0.00" departDelay="0.48" arrival="142.00" arrivalLane="t_e_0" arrivalPos="136.25" arrivalSpeed="11.86" duration="139.00" routeLength="294.90" waitingTime="106.00" waitingCount="1" stopTime="0.00" timeLoss="114.72" rerouteNo="0" devices="tripinfo_flow07.0" vType="CarA" speedFactor="0.90" vaporized=""/>
    <tripinfo id="flow09.1" depart="9.00" departLane="w_t_0" departPos="5.10" departSpeed="0.00" departDelay="2.36" arrival="143.00" arrivalLane="t_n_0" arrivalPos="136.25" arrivalSpeed="11.78" duration="134.00" routeLength="279.21" waitingTime="102.00" waitingCount="1" stopTime="0.00" timeLoss="111.33" rerouteNo="0" devices="tripinfo_flow09.1" vType="CarA" speedFactor="0.94" vaporized=""/>
    <tripinfo id="flow07.1" depart="17.00" departLane="w_t_0" departPos="5.10" departSpeed="0.00" departDelay="0.53" arrival="144.00" arrivalLane="t_e_0" arrivalPos="136.25" arrivalSpeed="11.63" duration="127.00" routeLength="294.90" waitingTime="92.00" waitingCount="1" stopTime="0.00" timeLoss="102.32" rerouteNo="0" devices="tripinfo_flow07.1" vType="CarA" speedFactor="0.87" vaporized=""/>
    <tripinfo id="flow08.1" depart="43.00" departLane="w_t_0" departPos="5.10" departSpeed="0.00" departDelay="0.16" arrival="145.00" arrivalLane="t_s_0" arrivalPos="136.25" arrivalSpeed="10.71" duration="102.00" routeLength="293.40" waitingTime="68.00" waitingCount="1" stopTime="0.00" timeLoss="75.74" rerouteNo="0" devices="tripinfo_flow08.1" vType="CarA" speedFactor="0.85" vaporized=""/>
    <tripinfo id="flow01.11" depart="109.00" departLane="n_t_0" departPos="5.10" departSpeed="0.00" departDelay="0.09" arrival="150.00" arrivalLane="t_s_0" arrivalPos="136.25" arrivalSpeed="13.15" duration="41.00" routeLength="294.90" waitingTime="11.00" waitingCount="1" stopTime="0.00" timeLoss="19.70" rerouteNo="0" devices="tripinfo_flow01.11" vType="CarA" speedFactor="1.01" vaporized=""/>
    <tripinfo id="flow03.8" depart="125.00" departLane="n_t_0" departPos="5.10" departSpeed="0.00" departDelay="1.49" arrival="150.00" arrivalLane="t_e_0" arrivalPos="136.25" arrivalSpeed="14.89" duration="25.00" routeLength="279.21" waitingTime="0.00" waitingCount="0" stopTime="0.00" timeLoss="5.80" rerouteNo="0" devices="tripinfo_flow03.8" vType="CarA" speedFactor="1.14" vaporized=""/>
    <tripinfo id="flow01.12" depart="113.00" departLane="n_t_0" departPos="5.10" departSpeed="0.00" departDelay="0.36" arrival="152.00" arrivalLane="t_s_0" arrivalPos="136.25" arrivalSpeed="14.71" duration="39.00" routeLength="294.90" waitingTime="8.00" waitingCount="1" stopTime="0.00" timeLoss="19.65" rerouteNo="0" devices="tripinfo_flow01.12" vType="CarA" speedFactor="1.14" vaporized=""/>
    <tripinfo id="flow02.12" depart="118.00" departLane="n_t_0" departPos="5.10" departSpeed="0.00" departDelay="0.83" arrival="154.00" arrivalLane="t_w_0" arrivalPos="136.25" arrivalSpeed="9.72" duration="36.00" routeLength="293.40" waitingTime="0.00" waitingCount="0" stopTime="0.00" timeLoss="4.98" rerouteNo="0" devices="tripinfo_flow02.12" vType="CarA" speedFactor="0.72" vaporized=""/>
    <tripinfo id="flow02.13" depart="124.00" departLane="n_t_0" departPos="5.10" departSpeed="0.00" departDelay="0.13" arrival="155.00" arrivalLane="t_w_0" arrivalPos="136.25" arrivalSpeed="11.76" duration="31.00" routeLength="293.40" waitingTime="0.00" waitingCount="0" stopTime="0.00" timeLoss="6.02" rerouteNo="0" devices="tripinfo_flow02.13" vType="CarA" speedFactor="0.87" vaporized=""/>
    <tripinfo id="flow02.14" depart="128.00" departLane="n_t_0" departPos="5.10" departSpeed="0.00" departDelay="2.41" arrival="157.00" arrivalLane="t_w_0" arrivalPos="136.25" arrivalSpeed="13.48" duration="29.00" routeLength="293.40" waitingTime="0.00" waitingCount="0" stopTime="0.00" timeLoss="7.21" rerouteNo="0" devices="tripinfo_flow02.14" vType="CarA" speedFactor="1.00" vaporized=""/>
    <tripinfo id="flow09.2" depart="12.00" departLane="w_t_0" departPos="5.10" departSpeed="0.00" departDelay="0.63" arrival="163.00" arrivalLane="t_n_0" arrivalPos="136.25" arrivalSpeed="11.32" duration="151.00" routeLength="279.21" waitingTime="114.00" waitingCount="2" stopTime="0.00" timeLoss="127.20" rerouteNo="0" devices="tripinfo_flow09.2" vType="CarA" speedFactor="0.88" vaporized=""/>
    <tripinfo id="flow08.2" depart="53.00" departLane="w_t_0" departPos="5.10" departSpeed="0.00" departDelay="0.12" arrival="163.00" arrivalLane="t_s_0" arrivalPos="136.25" arrivalSpeed="13.43" duration="110.00" routeLength="293.40" waitingTime="74.00" waitingCount="2" stopTime="0.00" timeLoss="88.20" rerouteNo="0" devices="tripinfo_flow08.2" vType="CarA" speedFactor="1.03" vaporized=""/>
    <tripinfo id="flow07.2" depart="69.00" departLane="w_t_0" departPos="5.10" departSpeed="0.00" departDelay="0.38" arrival="164.00" arrivalLane="t_e_0" arrivalPos="136.25" arrivalSpeed="12.91" duration="95.00" routeLength="294.90" waitingTime="57.00" waitingCount="2" stopTime="0.00" timeLoss="72.28" rerouteNo="0" devices="tripinfo_flow07.2" vType="CarA" speedFactor="0.97" vaporized=""/>
    <tripinfo id="flow09.3" depart="39.00" departLane="w_t_0" departPos="5.10" departSpeed="0.00" departDelay="0.82" arrival="165.00" arrivalLane="t_n_0" arrivalPos="136.25" arrivalSpeed="14.96" duration="126.00" routeLength="279.21" waitingTime="91.00" waitingCount="2" stopTime="0.00" timeLoss="106.44" rerouteNo="0" devices="tripinfo_flow09.3" vType="CarA" speedFactor="1.10" vaporized=""/>
    <tripinfo id="flow08.3" depart="74.00" departLane="w_t_0" departPos="5.10" departSpeed="0.00" departDelay="2.08" arrival="165.00" arrivalLane="t_s_0" arrivalPos="136.25" arrivalSpeed="12.92" duration="91.00" routeLength="293.40" waitingTime="52.00" waitingCount="2" stopTime="0.00" timeLoss="68.30" rerouteNo="0" devices="tripinfo_flow08.3" vType="CarA" speedFactor="0.97" vaporized=""/>
    <tripinfo id="flow07.3" depart="76.00" departLane="w_t_0" departPos="5.10" departSpeed="0.00" departDelay="1.22" arrival="165.00" arrivalLane="t_e_0" arrivalPos="136.25" arrivalSpeed="13.27" duration="89.00" routeLength="294.90" waitingTime="50.00" waitingCount="2" stopTime="0.00" timeLoss="67.95" rerouteNo="0" devices="tripinfo_flow07.3" vType="CarA" speedFactor="1.01" vaporized=""/>
    <tripinfo id="flow03.9" depart="142.00" departLane="n_t_0" departPos="5.10" departSpeed="0.00" departDelay="1.48" arrival="169.00" arrivalLane="t_e_0" arrivalPos="136.25" arrivalSpeed="14.09" duration="27.00" routeLength="279.21" waitingTime="0.00" waitingCount="0" stopTime="0.00" timeLoss="6.91" rerouteNo="0" devices="tripinfo_flow03.9" vType="CarA" speedFactor="1.05" vaporized=""/>
    <tripinfo id="flow02.15" depart="133.00" departLane="n_t_0" departPos="5.10" departSpeed="0.00" departDelay="3.40" arrival="172.00" arrivalLane="t_w_0" arrivalPos="136.25" arrivalSpeed="12.49" duration="39.00" routeLength="293.40" waitingTime="8.00" waitingCount="1" stopTime="0.00" timeLoss="15.60" rerouteNo="0" devices="tripinfo_flow02.15" vType="CarA" speedFactor="0.94" vaporized=""/>