<?xml version="1.0" encoding="UTF-8"?>

<!-- generated on 2024-07-07 16:50:20 by Eclipse SUMO libsumo Version 1.20.0
<configuration xmlns:xsi="http://www.w3.org/2001/XMLSchema-instance" xsi:noNamespaceSchemaLocation="http://sumo.dlr.de/xsd/libsumoConfiguration.xsd">

    <input>
        <net-file value="sumo_rl/nets/2way-single-intersection/single-intersection-4.net.xml"/>
        <route-files value="/root/autodl-tmp/outputs/2024-07-07/16-49-54-1684/output.rou.xml"/>
    </input>

    <output>
        <tripinfo-output value="/root/autodl-tmp/outputs/2024-07-07/16-49-54-1684/tripinfos-5.xml"/>
    </output>

    <processing>
        <time-to-teleport value="-1"/>
        <waiting-time-memory value="1000"/>
        <max-depart-delay value="-1"/>
    </processing>

    <random_number>
        <seed value="29"/>
    </random_number>

</configuration>
-->

<tripinfos xmlns:xsi="http://www.w3.org/2001/XMLSchema-instance" xsi:noNamespaceSchemaLocation="http://sumo.dlr.de/xsd/tripinfo_file.xsd">
    <tripinfo id="flow06.0" depart="1.00" departLane="s_t_0" departPos="5.10" departSpeed="0.00" departDelay="0.53" arrival="32.00" arrivalLane="t_e_0" arrivalPos="136.25" arrivalSpeed="14.36" duration="31.00" routeLength="293.40" waitingTime="1.00" waitingCount="1" stopTime="0.00" timeLoss="9.59" rerouteNo="0" devices="tripinfo_flow06.0" vType="CarA" speedFactor="1.04" vaporized=""/>
    <tripinfo id="flow06.1" depart="6.00" departLane="s_t_0" departPos="5.10" departSpeed="0.00" departDelay="0.54" arrival="34.00" arrivalLane="t_e_0" arrivalPos="136.25" arrivalSpeed="14.66" duration="28.00" routeLength="293.40" waitingTime="0.00" waitingCount="0" stopTime="0.00" timeLoss="7.74" rerouteNo="0" devices="tripinfo_flow06.1" vType="CarA" speedFactor="1.11" vaporized=""/>
    <tripinfo id="flow06.2" depart="9.00" departLane="s_t_0" departPos="5.10" departSpeed="0.00" departDelay="0.84" arrival="36.00" arrivalLane="t_e_0" arrivalPos="136.25" arrivalSpeed="14.42" duration="27.00" routeLength="293.40" waitingTime="0.00" waitingCount="0" stopTime="0.00" timeLoss="5.70" rerouteNo="0" devices="tripinfo_flow06.2" vType="CarA" speedFactor="1.05" vaporized=""/>
    <tripinfo id="flow04.0" depart="12.00" departLane="s_t_0" departPos="5.10" departSpeed="0.00" departDelay="0.73" arrival="37.00" arrivalLane="t_n_0" arrivalPos="136.25" arrivalSpeed="13.41" duration="25.00" routeLength="294.90" waitingTime="0.00" waitingCount="0" stopTime="0.00" timeLoss="4.44" rerouteNo="0" devices="tripinfo_flow04.0" vType="CarA" speedFactor="1.03" vaporized=""/>
    <tripinfo id="flow06.3" depart="15.00" departLane="s_t_0" departPos="5.10" departSpeed="0.00" departDelay="1.71" arrival="41.00" arrivalLane="t_e_0" arrivalPos="136.25" arrivalSpeed="14.24" duration="26.00" routeLength="293.40" waitingTime="0.00" waitingCount="0" stopTime="0.00" timeLoss="5.35" rerouteNo="0" devices="tripinfo_flow06.3" vType="CarA" speedFactor="1.08" vaporized=""/>
    <tripinfo id="flow04.1" depart="23.00" departLane="s_t_0" departPos="5.10" departSpeed="0.00" departDelay="0.64" arrival="46.00" arrivalLane="t_n_0" arrivalPos="136.25" arrivalSpeed="15.76" duration="23.00" routeLength="294.90" waitingTime="0.00" waitingCount="0" stopTime="0.00" timeLoss="3.91" rerouteNo="0" devices="tripinfo_flow04.1" vType="CarA" speedFactor="1.14" vaporized=""/>
    <tripinfo id="flow04.2" depart="27.00" departLane="s_t_0" departPos="5.10" departSpeed="0.00" departDelay="0.61" arrival="53.00" arrivalLane="t_n_0" arrivalPos="136.25" arrivalSpeed="12.77" duration="26.00" routeLength="294.90" waitingTime="0.00" waitingCount="0" stopTime="0.00" timeLoss="4.09" rerouteNo="0" devices="tripinfo_flow04.2" vType="CarA" speedFactor="1.00" vaporized=""/>
    <tripinfo id="flow04.3" depart="39.00" departLane="s_t_0" departPos="5.10" departSpeed="0.00" departDelay="0.29" arrival="64.00" arrivalLane="t_n_0" arrivalPos="136.25" arrivalSpeed="13.86" duration="25.00" routeLength="294.90" waitingTime="0.00" waitingCount="0" stopTime="0.00" timeLoss="4.38" rerouteNo="0" devices="tripinfo_flow04.3" vType="CarA" speedFactor="1.03" vaporized=""/>
    <tripinfo id="flow05.0" depart="42.00" departLane="s_t_0" departPos="5.10" departSpeed="0.00" departDelay="1.16" arrival="65.00" arrivalLane="t_w_0" arrivalPos="136.25" arrivalSpeed="16.16" duration="23.00" routeLength="279.21" waitingTime="0.00" waitingCount="0" stopTime="0.00" timeLoss="5.45" rerouteNo="0" devices="tripinfo_flow05.0" vType="CarA" speedFactor="1.22" vaporized=""/>
    <tripinfo id="flow04.4" depart="45.00" departLane="s_t_0" departPos="5.10" departSpeed="0.00" departDelay="2.82" arrival="72.00" arrivalLane="t_n_0" arrivalPos="136.25" arrivalSpeed="12.10" duration="27.00" routeLength="294.90" waitingTime="0.00" waitingCount="0" stopTime="0.00" timeLoss="3.93" rerouteNo="0" devices="tripinfo_flow04.4" vType="CarA" speedFactor="0.94" vaporized=""/>
    <tripinfo id="flow06.4" depart="48.00" departLane="s_t_0" departPos="5.10" departSpeed="0.00" departDelay="5.05" arrival="75.00" arrivalLane="t_e_0" arrivalPos="136.25" arrivalSpeed="13.01" duration="27.00" routeLength="293.40" waitingTime="0.00" waitingCount="0" stopTime="0.00" timeLoss="4.53" rerouteNo="0" devices="tripinfo_flow06.4" vType="CarA" speedFactor="0.98" vaporized=""/>
    <tripinfo id="flow05.1" depart="49.00" departLane="s_t_0" departPos="5.10" departSpeed="0.00" departDelay="3.32" arrival="77.00" arrivalLane="t_w_0" arrivalPos="136.25" arrivalSpeed="13.00" duration="28.00" routeLength="279.21" waitingTime="0.00" waitingCount="0" stopTime="0.00" timeLoss="5.01" rerouteNo="0" devices="tripinfo_flow05.1" vType="CarA" speedFactor="0.94" vaporized=""/>
    <tripinfo id="flow04.5" depart="53.00" departLane="s_t_0" departPos="5.10" departSpeed="0.00" departDelay="0.33" arrival="79.00" arrivalLane="t_n_0" arrivalPos="136.25" arrivalSpeed="13.05" duration="26.00" routeLength="294.90" waitingTime="0.00" waitingCount="0" stopTime="0.00" timeLoss="3.43" rerouteNo="0" devices="tripinfo_flow04.5" vType="CarA" speedFactor="0.95" vaporized=""/>
    <tripinfo id="flow04.6" depart="56.00" departLane="s_t_0" departPos="5.10" departSpeed="0.00" departDelay="1.48" arrival="81.00" arrivalLane="t_n_0" arrivalPos="136.25" arrivalSpeed="13.45" duration="25.00" routeLength="294.90" waitingTime="0.00" waitingCount="0" stopTime="0.00" timeLoss="3.99" rerouteNo="0" devices="tripinfo_flow04.6" vType="CarA" speedFactor="1.01" vaporized=""/>
    <tripinfo id="flow04.7" depart="60.00" departLane="s_t_0" departPos="5.10" departSpeed="0.00" departDelay="1.03" arrival="83.00" arrivalLane="t_n_0" arrivalPos="136.25" arrivalSpeed="16.24" duration="23.00" routeLength="294.90" waitingTime="0.00" waitingCount="0" stopTime="0.00" timeLoss="5.01" rerouteNo="0" devices="tripinfo_flow04.7" vType="CarA" speedFactor="1.21" vaporized=""/>
    <tripinfo id="flow06.5" depart="58.00" departLane="s_t_0" departPos="5.10" departSpeed="0.00" departDelay="3.12" arrival="85.00" arrivalLane="t_e_0" arrivalPos="136.25" arrivalSpeed="12.80" duration="27.00" routeLength="293.40" waitingTime="0.00" waitingCount="0" stopTime="0.00" timeLoss="4.65" rerouteNo="0" devices="tripinfo_flow06.5" vType="CarA" speedFactor="0.99" vaporized=""/>
    <tripinfo id="flow04.8" depart="64.00" departLane="s_t_0" departPos="5.10" departSpeed="0.00" departDelay="0.67" arrival="90.00" arrivalLane="t_n_0" arrivalPos="136.25" arrivalSpeed="13.72" duration="26.00" routeLength="294.90" waitingTime="0.00" waitingCount="0" stopTime="0.00" timeLoss="4.30" rerouteNo="0" devices="tripinfo_flow04.8" vType="CarA" speedFactor="1.02" vaporized=""/>
    <tripinfo id="flow06.6" depart="62.00" departLane="s_t_0" departPos="5.10" departSpeed="0.00" departDelay="3.11" arrival="91.00" arrivalLane="t_e_0" arrivalPos="136.25" arrivalSpeed="11.95" duration="29.00" routeLength="293.40" waitingTime="0.00" waitingCount="0" stopTime="0.00" timeLoss="4.62" rerouteNo="0" devices="tripinfo_flow06.6" vType="CarA" speedFactor="0.90" vaporized=""/>
    <tripinfo id="flow06.7" depart="70.00" departLane="s_t_0" departPos="5.10" departSpeed="0.00" departDelay="4.21" arrival="96.00" arrivalLane="t_e_0" arrivalPos="136.25" arrivalSpeed="12.66" duration="26.00" routeLength="293.40" waitingTime="0.00" waitingCount="0" stopTime="0.00" timeLoss="4.45" rerouteNo="0" devices="tripinfo_flow06.7" vType="CarA" speedFactor="1.00" vaporized=""/>
    <tripinfo id="flow04.9" depart="67.00" departLane="s_t_0" departPos="5.10" departSpeed="0.00" departDelay="1.33" arrival="97.00" arrivalLane="t_n_0" arrivalPos="136.25" arrivalSpeed="11.54" duration="30.00" routeLength="294.90" waitingTime="0.00" waitingCount="0" stopTime="0.00" timeLoss="4.13" rerouteNo="0" devices="tripinfo_flow04.9" vType="CarA" speedFactor="0.85" vaporized=""/>
    <tripinfo id="flow05.2" depart="71.00" departLane="s_t_0" departPos="5.10" departSpeed="0.00" departDelay="3.06" arrival="98.00" arrivalLane="t_w_0" arrivalPos="136.25" arrivalSpeed="14.17" duration="27.00" routeLength="279.21" waitingTime="0.00" waitingCount="0" stopTime="0.00" timeLoss="6.12" rerouteNo="0" devices="tripinfo_flow05.2" vType="CarA" speedFactor="1.04" vaporized=""/>
    <tripinfo id="flow06.8" depart="76.00" departLane="s_t_0" departPos="5.10" departSpeed="0.00" departDelay="4.38" arrival="99.00" arrivalLane="t_e_0" arrivalPos="136.25" arrivalSpeed="15.82" duration="23.00" routeLength="293.40" waitingTime="0.00" waitingCount="0" stopTime="0.00" timeLoss="4.49" rerouteNo="0" devices="tripinfo_flow06.8" vType="CarA" speedFactor="1.21" vaporized=""/>
    <tripinfo id="flow04.10" depart="74.00" departLane="s_t_0" departPos="5.10" departSpeed="0.00" departDelay="5.35" arrival="103.00" arrivalLane="t_n_0" arrivalPos="136.25" arrivalSpeed="10.82" duration="29.00" routeLength="294.90" waitingTime="0.00" waitingCount="0" stopTime="0.00" timeLoss="3.70" rerouteNo="0" devices="tripinfo_flow04.10" vType="CarA" speedFactor="0.87" vaporized=""/>
    <tripinfo id="flow04.11" depart="81.00" departLane="s_t_0" departPos="5.10" departSpeed="0.00" departDelay="0.55" arrival="105.00" arrivalLane="t_n_0" arrivalPos="136.25" arrivalSpeed="15.60" duration="24.00" routeLength="294.90" waitingTime="0.00" waitingCount="0" stopTime="0.00" timeLoss="4.66" rerouteNo="0" devices="tripinfo_flow04.11" vType="CarA" speedFactor="1.13" vaporized=""/>
    <tripinfo id="flow04.12" depart="84.00" departLane="s_t_0" departPos="5.10" departSpeed="0.00" departDelay="2.48" arrival="107.00" arrivalLane="t_n_0" arrivalPos="136.25" arrivalSpeed="16.14" duration="23.00" routeLength="294.90" waitingTime="0.00" waitingCount="0" stopTime="0.00" timeLoss="3.98" rerouteNo="0" devices="tripinfo_flow04.12" vType="CarA" speedFactor="1.17" vaporized=""/>
    <tripinfo id="flow04.13" depart="86.00" departLane="s_t_0" departPos="5.10" departSpeed="0.00" departDelay="4.16" arrival="112.00" arrivalLane="t_n_0" arrivalPos="136.25" arrivalSpeed="13.39" duration="26.00" routeLength="294.90" waitingTime="0.00" waitingCount="0" stopTime="0.00" timeLoss="4.30" rerouteNo="0" devices="tripinfo_flow04.13" vType="CarA" speedFactor="1.00" vaporized=""/>
    <tripinfo id="flow04.14" depart="103.00" departLane="s_t_0" departPos="5.10" departSpeed="0.00" departDelay="0.08" arrival="127.00" arrivalLane="t_n_0" arrivalPos="136.25" arrivalSpeed="14.66" duration="24.00" routeLength="294.90" waitingTime="0.00" waitingCount="0" stopTime="0.00" timeLoss="4.01" rerouteNo="0" devices="tripinfo_flow04.14" vType="CarA" speedFactor="1.11" vaporized=""/>
    <tripinfo id="flow04.15" depart="110.00" departLane="s_t_0" departPos="5.10" departSpeed="0.00" departDelay="0.70" arrival="136.00" arrivalLane="t_n_0" arrivalPos="136.25" arrivalSpeed="12.87" duration="26.00" routeLength="294.90" waitingTime="0.00" waitingCount="0" stopTime="0.00" timeLoss="3.87" rerouteNo="0" devices="tripinfo_flow04.15" vType="CarA" speedFactor="0.96" vaporized=""/>
    <tripinfo id="flow04.16" depart="113.00" departLane="s_t_0" departPos="5.10" departSpeed="0.00" departDelay="2.97" arrival="138.00" arrivalLane="t_n_0" arrivalPos="136.25" arrivalSpeed="13.69" duration="25.00" routeLength="294.90" waitingTime="0.00" waitingCount="0" stopTime="0.00" timeLoss="4.52" rerouteNo="0" devices="tripinfo_flow04.16" vType="CarA" speedFactor="1.06" vaporized=""/>
    <tripinfo id="flow04.17" depart="118.00" departLane="s_t_0" departPos="5.10" departSpeed="0.00" departDelay="3.45" arrival="143.00" arrivalLane="t_n_0" arrivalPos="136.25" arrivalSpeed="13.39" duration="25.00" routeLength="294.90" waitingTime="0.00" waitingCount="0" stopTime="0.00" timeLoss="4.65" rerouteNo="0" devices="tripinfo_flow04.17" vType="CarA" speedFactor="1.06" vaporized=""/>
    <tripinfo id="flow06.9" depart="116.00" departLane="s_t_0" departPos="5.10" departSpeed="0.00" departDelay="4.22" arrival="144.00" arrivalLane="t_e_0" arrivalPos="136.25" arrivalSpeed="11.90" duration="28.00" routeLength="293.40" waitingTime="0.00" waitingCount="0" stopTime="0.00" timeLoss="4.47" rerouteNo="0" devices="tripinfo_flow06.9" vType="CarA" speedFactor="0.94" vaporized=""/>
    <tripinfo id="flow06.10" depart="121.00" departLane="s_t_0" departPos="5.10" departSpeed="0.00" departDelay="5.87" arrival="150.00" arrivalLane="t_e_0" arrivalPos="136.25" arrivalSpeed="11.81" duration="29.00" routeLength="293.40" waitingTime="0.00" waitingCount="0" stopTime="0.00" timeLoss="4.11" rerouteNo="0" devices="tripinfo_flow06.10" vType="CarA" speedFactor="0.87" vaporized=""/>
    <tripinfo id="flow04.18" depart="128.00" departLane="s_t_0" departPos="5.10" departSpeed="0.00" departDelay="0.62" arrival="151.00" arrivalLane="t_n_0" arrivalPos="136.25" arrivalSpeed="15.75" duration="23.00" routeLength="294.90" waitingTime="0.00" waitingCount="0" stopTime="0.00" timeLoss="4.03" rerouteNo="0" devices="tripinfo_flow04.18" vType="CarA" speedFactor="1.15" vaporized=""/>
    <tripinfo id="flow06.11" depart="123.00" departLane="s_t_0" departPos="5.10" departSpeed="0.00" departDelay="3.12" arrival="152.00" arrivalLane="t_e_0" arrivalPos="136.25" arrivalSpeed="14.59" duration="29.00" routeLength="293.40" waitingTime="0.00" waitingCount="0" stopTime="0.00" timeLoss="11.67" rerouteNo="0" devices="tripinfo_flow06.11" vType="CarA" speedFactor="1.27" vaporized=""/>
    <tripinfo id="flow04.19" depart="131.00" departLane="s_t_0" departPos="5.10" departSpeed="0.00" departDelay="1.96" arrival="155.00" arrivalLane="t_n_0" arrivalPos="136.25" arrivalSpeed="14.02" duration="24.00" routeLength="294.90" waitingTime="0.00" waitingCount="0" stopTime="0.00" timeLoss="3.47" rerouteNo="0" devices="tripinfo_flow04.19" vType="CarA" speedFactor="1.06" vaporized=""/>
    <tripinfo id="flow04.20" depart="135.00" departLane="s_t_0" departPos="5.10" departSpeed="0.00" departDelay="0.49" arrival="163.00" arrivalLane="t_n_0" arrivalPos="136.25" arrivalSpeed="11.44" duration="28.00" routeLength="294.90" waitingTime="0.00" waitingCount="0" stopTime="0.00" timeLoss="3.53" rerouteNo="0" devices="tripinfo_flow04.20" vType="CarA" speedFactor="0.87" vaporized=""/>
    <tripinfo id="flow04.21" depart="141.00" departLane="s_t_0" departPos="5.10" departSpeed="0.00" departDelay="0.38" arrival="167.00" arrivalLane="t_n_0" arrivalPos="136.25" arrivalSpeed="12.31" duration="26.00" routeLength="294.90" waitingTime="0.00" waitingCount="0" stopTime="0.00" timeLoss="3.81" rerouteNo="0" devices="tripinfo_flow04.21" vType="CarA" speedFactor="0.96" vaporized=""/>
    <tripinfo id="flow05.3" depart="146.00" departLane="s_t_0" departPos="5.10" departSpeed="0.00" departDelay="0.65" arrival="172.00" arrivalLane="t_w_0" arrivalPos="136.25" arrivalSpeed="13.02" duration="26.00" routeLength="279.21" waitingTime="0.00" waitingCount="0" stopTime="0.00" timeLoss="5.69" rerouteNo="0" devices="tripinfo_flow05.3" vType="CarA" speedFactor="1.03" vaporized=""/>
    <tripinfo id="flow04.22" depart="152.00" departLane="s_t_0" departPos="5.10" departSpeed="0.00" departDelay="0.82" arrival="176.00" arrivalLane="t_n_0" arrivalPos="136.25" arrivalSpeed="14.43" duration="24.00" routeLength="294.90" waitingTime="0.00" waitingCount="0" stopTime="0.00" timeLoss="3.65" rerouteNo="0" devices="tripinfo_flow04.22" vType="CarA" speedFactor="1.09" vaporized=""/>
    <tripinfo id="flow05.4" depart="154.00" departLane="s_t_0" departPos="5.10" departSpeed="0.00" departDelay="0.06" arrival="180.00" arrivalLane="t_w_0" arrivalPos="136.25" arrivalSpeed="12.55" duration="26.00" routeLength="279.21" waitingTime="0.00" waitingCount="0" stopTime="0.00" timeLoss="5.10" rerouteNo="0" devices="tripinfo_flow05.4" vType="CarA" speedFactor="0.99" vaporized=""/>
    <tripinfo id="flow04.23" depart="160.00" departLane="s_t_0" departPos="5.10" departSpeed="0.00" departDelay="0.41" arrival="187.00" arrivalLane="t_n_0" arrivalPos="136.25" arrivalSpeed="11.78" duration="27.00" routeLength="294.90" waitingTime="0.00" waitingCount="0" stopTime="0.00" timeLoss="3.61" rerouteNo="0" devices="tripinfo_flow04.23" vType="CarA" speedFactor="0.92" vaporized=""/>
    <tripinfo id="flow09.0" depart="14.00" departLane="w_t_0" departPos="5.10" departSpeed="0.00" departDelay="1.62" arrival="193.00" arrivalLane="t_n_0" arrivalPos="136.25" arrivalSpeed="14.61" duration="179.00" routeLength="279.21" waitingTime="150.00" waitingCount="1" stopTime="0.00" timeLoss="159.60" rerouteNo="0" devices="tripinfo_flow09.0" vType="CarA" speedFactor="1.11" vaporized=""/>
    <tripinfo id="flow07.0" depart="3.00" departLane="w_t_0" departPos="5.10" departSpeed="0.00" departDelay="0.13" arrival="194.00" arrivalLane="t_e_0" arrivalPos="136.25" arrivalSpeed="15.53" duration="191.00" routeLength="294.90" waitingTime="160.00" waitingCount="1" stopTime="0.00" timeLoss="172.13" rerouteNo="0" devices="tripinfo_flow07.0" vType="CarA" speedFactor="1.16" vaporized=""/>
    <tripinfo id="flow08.0" depart="12.00" departLane="w_t_0" departPos="5.10" departSpeed="0.00" departDelay="0.86" arrival="195.00" arrivalLane="t_s_0" arrivalPos="136.25" arrivalSpeed="13.14" duration="183.00" routeLength="293.40" waitingTime="151.00" waitingCount="1" stopTime="0.00" timeLoss="160.59" rerouteNo="0" devices="tripinfo_flow08.0" vType="CarA" speedFactor="0.98" vaporized=""/>
    <tripinfo id="flow09.1" depart="21.00" departLane="w_t_0" departPos="5.10" departSpeed="0.00" departDelay="0.91" arrival="195.00" arrivalLane="t_n_0" arrivalPos="136.25" arrivalSpeed="15.64" duration="174.00" routeLength="279.21" waitingTime="145.00" waitingCount="1" stopTime="0.00" timeLoss="155.55" rerouteNo="0" devices="tripinfo_flow09.1" vType="CarA" speedFactor="1.16" vaporized=""/>
    <tripinfo id="flow07.1" depart="6.00" departLane="w_t_0" departPos="5.10" departSpeed="0.00" departDelay="1.38" arrival="196.00" arrivalLane="t_e_0" arrivalPos="136.25" arrivalSpeed="14.37" duration="190.00" routeLength="294.90" waitingTime="159.00" waitingCount="1" stopTime="0.00" timeLoss="169.66" rerouteNo="0" devices="tripinfo_flow07.1" vType="CarA" speedFactor="1.04" vaporized=""/>
    <tripinfo id="flow08.1" depart="26.00" departLane="w_t_0" departPos="5.10" departSpeed="0.00" departDelay="0.92" arrival="197.00" arrivalLane="t_s_0" arrivalPos="136.25" arrivalSpeed="13.36" duration="171.00" routeLength="293.40" waitingTime="139.00" waitingCount="1" stopTime="0.00" timeLoss="148.06" rerouteNo="0" devices="tripinfo_flow08.1" vType="CarA" speedFactor="0.96" vaporized=""/>
    <tripinfo id="flow02.0" depart="8.00" departLane="n_t_0" departPos="5.10" departSpeed="0.00" departDelay="4.52" arrival="203.00" arrivalLane="t_w_0" arrivalPos="136.25" arrivalSpeed="13.55" duration="195.00" routeLength="293.40" waitingTime="166.00" waitingCount="1" stopTime="0.00" timeLoss="174.06" rerouteNo="0" devices="tripinfo_flow02.0" vType="CarA" speedFactor="1.05" vaporized=""/>
    <tripinfo id="flow03.0" depart="20.00" departLane="n_t_0" departPos="5.10" departSpeed="0.00" departDelay="0.38" arrival="203.00" arrivalLane="t_e_0" arrivalPos="136.25" arrivalSpeed="13.34" duration="183.00" routeLength="279.21" waitingTime="153.00" waitingCount="1" stopTime="0.00" timeLoss="162.44" rerouteNo="0" devices="tripinfo_flow03.0" vType="CarA" speedFactor="1.05" vaporized=""/>
    <tripinfo id="flow02.1" depart="13.00" departLane="n_t_0" departPos="5.10" departSpeed="0.00" departDelay="5.40" arrival="205.00" arrivalLane="t_w_0" arrivalPos="136.25" arrivalSpeed="14.17" duration="192.00" routeLength="293.40" waitingTime="160.00" waitingCount="1" stopTime="0.00" timeLoss="170.81" rerouteNo="0" devices="tripinfo_flow02.1" vType="CarA" speedFactor="1.05" vaporized=""/>
    <tripinfo id="flow03.1" depart="78.00" departLane="n_t_0" departPos="5.10" departSpeed="0.00" departDelay="0.81" arrival="205.00" arrivalLane="t_e_0" arrivalPos="136.25" arrivalSpeed="13.27" duration="127.00" routeLength="279.21" waitingTime="98.00" waitingCount="1" stopTime="0.00" timeLoss="106.42" rerouteNo="0" devices="tripinfo_flow03.1" vType="CarA" speedFactor="1.05" vaporized=""/>
    <tripinfo id="flow01.0" depart="2.00" departLane="n_t_0" departPos="5.10" departSpeed="0.00" departDelay="0.44" arrival="206.00" arrivalLane="t_s_0" arrivalPos="136.25" arrivalSpeed="11.03" duration="204.00" routeLength="294.90" waitingTime="170.00" waitingCount="1" stopTime="0.00" timeLoss="178.82" rerouteNo="0" devices="tripinfo_flow01.0" vType="CarA" speedFactor="0.87" vaporized=""/>
    <tripinfo id="flow01.1" depart="5.00" departLane="n_t_0" departPos="5.10" departSpeed="0.00" departDelay="1.77" arrival="208.00" arrivalLane="t_s_0" arrivalPos="136.25" arrivalSpeed="12.50" duration="203.00" routeLength="294.90" waitingTime="169.00" waitingCount="1" stopTime="0.00" timeLoss="179.58" rerouteNo="0" devices="tripinfo_flow01.1" vType="CarA" speedFactor="0.94" vaporized=""/>
    <tripinfo id="flow03.2" depart="81.00" departLane="n_t_0" departPos="5.10" departSpeed="0.00" departDelay="3.57" arrival="208.00" arrivalLane="t_e_0" arrivalPos="136.25" arrivalSpeed="13.64" duration="127.00" routeLength="279.21" waitingTime="94.00" waitingCount="1" stopTime="0.00" timeLoss="105.58" rerouteNo="0" devices="tripinfo_flow03.2" vType="CarA" speedFactor="1.01" vaporized=""/>
    <tripinfo id="flow01.2" depart="10.00" departLane="n_t_0" departPos="5.10" departSpeed="0.00" departDelay="4.81" arrival="209.00" arrivalLane="t_s_0" arrivalPos="136.25" arrivalSpeed="13.02" duration="199.00" routeLength="294.90" waitingTime="164.00" waitingCount="1" stopTime="0.00" timeLoss="178.06" rerouteNo="0" devices="tripinfo_flow01.2" vType="CarA" speedFactor="1.03" vaporized=""/>
    <tripinfo id="flow02.2" depart="30.00" departLane="n_t_0" departPos="5.10" departSpeed="0.00" departDelay="0.23" arrival="209.00" arrivalLane="t_w_0" arrivalPos="136.25" arrivalSpeed="12.37" duration="179.00" routeLength="293.40" waitingTime="145.00" waitingCount="1" stopTime="0.00" timeLoss="155.79" rerouteNo="0" devices="tripinfo_flow02.2" vType="CarA" speedFactor="0.97" vaporized=""/>
    <tripinfo id="flow03.3" depart="88.00" departLane="n_t_0" departPos="5.10" departSpeed="0.00" departDelay="0.19" arrival="210.00" arrivalLane="t_e_0" arrivalPos="136.25" arrivalSpeed="13.60" duration="122.00" routeLength="279.21" waitingTime="88.00" waitingCount="1" stopTime="0.00" timeLoss="100.91" rerouteNo="0" devices="tripinfo_flow03.3" vType="CarA" speedFactor="1.02" vaporized=""/>
    <tripinfo id="flow01.3" depart="15.00" departLane="n_t_0" departPos="5.10" departSpeed="0.00" departDelay="6.51" arrival="211.00" arrivalLane="t_s_0" arrivalPos="136.25" arrivalSpeed="12.53" duration="196.00" routeLength="294.90" waitingTime="162.00" waitingCount="1" stopTime="0.00" timeLoss="173.42" rerouteNo="0" devices="tripinfo_flow01.3" vType="CarA" speedFactor="0.96" vaporized=""/>
    <tripinfo id="flow01.4" depart="32.00" departLane="n_t_0" departPos="5.10" departSpeed="0.00" departDelay="1.85" arrival="212.00" arrivalLane="t_s_0" arrivalPos="136.25" arrivalSpeed="15.20" duration="180.00" routeLength="294.90" waitingTime="148.00" waitingCount="1" stopTime="0.00" timeLoss="161.33" rerouteNo="0" devices="tripinfo_flow01.4" vType="CarA" speedFactor="1.14" vaporized=""/>
    <tripinfo id="flow03.4" depart="91.00" departLane="n_t_0" departPos="5.10" departSpeed="0.00" departDelay="2.12" arrival="212.00" arrivalLane="t_e_0" arrivalPos="136.25" arrivalSpeed="14.40" duration="121.00" routeLength="279.21" waitingTime="87.00" waitingCount="1" stopTime="0.00" timeLoss="101.44" rerouteNo="0" devices="tripinfo_flow03.4" vType="CarA" speedFactor="1.09" vaporized=""/>
    <tripinfo id="flow01.5" depart="35.00" departLane="n_t_0" departPos="5.10" departSpeed="0.00" departDelay="4.01" arrival="214.00" arrivalLane="t_s_0" arrivalPos="136.25" arrivalSpeed="13.12" duration="179.00" routeLength="294.90" waitingTime="145.00" waitingCount="1" stopTime="0.00" timeLoss="157.58" rerouteNo="0" devices="tripinfo_flow01.5" vType="CarA" speedFactor="1.00" vaporized=""/>
    <tripinfo id="flow01.6" depart="39.00" departLane="n_t_0" departPos="5.10" departSpeed="0.00" departDelay="0.01" arrival="216.00" arrivalLane="t_s_0" arrivalPos="136.25" arrivalSpeed="11.39" duration="177.00" routeLength="294.90" waitingTime="144.00" waitingCount="1" stopTime="0.00" timeLoss="153.20" rerouteNo="0" devices="tripinfo_flow01.6" vType="CarA" speedFactor="0.89" vaporized=""/>
    <tripinfo id="flow03.5" depart="96.00" departLane="n_t_0" departPos="5.10" departSpeed="0.00" departDelay="0.90" arrival="216.00" arrivalLane="t_e_0" arrivalPos="136.25" arrivalSpeed="11.89" duration="120.00" routeLength="279.21" waitingTime="85.00" waitingCount="1" stopTime="0.00" timeLoss="96.81" rerouteNo="0" devices="tripinfo_flow03.5" vType="CarA" speedFactor="0.92" vaporized=""/>
    <tripinfo id="flow01.7" depart="47.00" departLane="n_t_0" departPos="5.10" departSpeed="0.00" departDelay="0.30" arrival="218.00" arrivalLane="t_s_0" arrivalPos="136.25" arrivalSpeed="13.57" duration="171.00" routeLength="294.90" waitingTime="137.00" waitingCount="1" stopTime="0.00" timeLoss="149.41" rerouteNo="0" devices="tripinfo_flow01.7" vType="CarA" speedFactor="1.01" vaporized=""/>
    <tripinfo id="flow03.6" depart="99.00" departLane="n_t_0" departPos="5.10" departSpeed="0.00" departDelay="3.51" arrival="218.00" arrivalLane="t_e_0" arrivalPos="136.25" arrivalSpeed="13.30" duration="119.00" routeLength="279.21" waitingTime="83.00" waitingCount="1" stopTime="0.00" timeLoss="97.53" rerouteNo="0" devices="tripinfo_flow03.6" vType="CarA" speedFactor="0.99" vaporized=""/>
    <tripinfo id="flow03.7" depart="105.00" departLane="n_t_0" departPos="5.10" departSpeed="0.00" departDelay="0.65" arrival="219.00" arrivalLane="t_e_0" arrivalPos="136.25" arrivalSpeed="14.08" duration="114.00" routeLength="279.21" waitingTime="79.00" waitingCount="1" stopTime="0.00" timeLoss="94.89" rerouteNo="0" devices="tripinfo_flow03.7" vType="CarA" speedFactor="1.11" vaporized=""/>
    <tripinfo id="flow01.8" depart="94.00" departLane="n_t_0" departPos="5.10" departSpeed="0.00" departDelay="3.76" arrival="220.00" arrivalLane="t_s_0" arrivalPos="136.25" arrivalSpeed="15.81" duration="126.00" routeLength="294.90" waitingTime="89.00" waitingCount="1" stopTime="0.00" timeLoss="107.21" rerouteNo="0" devices="tripinfo_flow01.8" vType="CarA" speedFactor="1.18" vaporized=""/>
    <tripinfo id="flow01.9" depart="110.00" departLane="n_t_0" departPos="5.10" departSpeed="0.00" departDelay="0.46" arrival="221.00" arrivalLane="t_s_0" arrivalPos="136.25" arrivalSpeed="13.36" duration="111.00" routeLength="294.90" waitingTime="78.00" waitingCount="1" stopTime="0.00" timeLoss="90.09" rerouteNo="0" devices="tripinfo_flow01.9" vType="CarA" speedFactor="1.02" vaporized=""/>
    <tripinfo id="flow03.8" depart="154.00" departLane="n_t_0" departPos="5.10" departSpeed="0.00" departDelay="0.49" arrival="222.00" arrivalLane="t_e_0" arrivalPos="136.25" arrivalSpeed="14.75" duration="68.00" routeLength="279.21" waitingTime="32.00" waitingCount="1" stopTime="0.00" timeLoss="47.28" rerouteNo="0" devices="tripinfo_flow03.8" vType="CarA" speedFactor="1.06" vaporized=""/>
    <tripinfo id="flow01.10" depart="121.00" departLane="n_t_0" departPos="5.10" departSpeed="0.00" departDelay="0.58" arrival="223.00" arrivalLane="t_s_0" arrivalPos="136.25" arrivalSpeed="13.44" duration="102.00" routeLength="294.90" waitingTime="68.00" waitingCount="1" stopTime="0.00" timeLoss="81.06" rerouteNo="0" devices="tripinfo_flow01.10" vType="CarA" speedFactor="1.03" vaporized=""/>
    <tripinfo id="flow01.11" depart="128.00" departLane="n_t_0" departPos="5.10" departSpeed="0.00" departDelay="0.27" arrival="225.00" arrivalLane="t_s_0" arrivalPos="136.25" arrivalSpeed="14.89" duration="97.00" routeLength="294.90" waitingTime="63.00" waitingCount="1" stopTime="0.00" timeLoss="76.59" rerouteNo="0" devices="tripinfo_flow01.11" vType="CarA" speedFactor="1.07" vaporized=""/>
    <tripinfo id="flow03.9" depart="167.00" departLane="n_t_0" departPos="5.10" departSpeed="0.00" departDelay="0.10" arrival="225.00" arrivalLane="t_e_0" arrivalPos="136.25" arrivalSpeed="12.16" duration="58.00" routeLength="279.21" waitingTime="21.00" waitingCount="1" stopTime="0.00" timeLoss="35.05" rerouteNo="0" devices="tripinfo_flow03.9" vType="CarA" speedFactor="0.95" vaporized=""/>
    <tripinfo id="flow03.10" depart="171.00" departLane="n_t_0" departPos="5.10" departSpeed="0.00" departDelay="0.57" arrival="227.00" arrivalLane="t_e_0" arrivalPos="136.25" arrivalSpeed="12.63" duration="56.00" routeLength="279.21" waitingTime="19.00" waitingCount="1" stopTime="0.00" timeLoss="34.76" rerouteNo="0" devices="tripinfo_flow03.10" vType="CarA" speedFactor="0.99" vaporized=""/>