<?xml version="1.0" encoding="UTF-8"?>

<!-- generated on 2024-07-07 16:50:14 by Eclipse SUMO libsumo Version 1.20.0
<configuration xmlns:xsi="http://www.w3.org/2001/XMLSchema-instance" xsi:noNamespaceSchemaLocation="http://sumo.dlr.de/xsd/libsumoConfiguration.xsd">

    <input>
        <net-file value="sumo_rl/nets/2way-single-intersection/single-intersection-4.net.xml"/>
        <route-files value="/root/autodl-tmp/outputs/2024-07-07/16-49-54-1684/output.rou.xml"/>
    </input>

    <output>
        <tripinfo-output value="/root/autodl-tmp/outputs/2024-07-07/16-49-54-1684/tripinfos-4.xml"/>
    </output>

    <processing>
        <time-to-teleport value="-1"/>
        <waiting-time-memory value="1000"/>
        <max-depart-delay value="-1"/>
    </processing>

    <random_number>
        <seed value="28"/>
    </random_number>

</configuration>
-->

<tripinfos xmlns:xsi="http://www.w3.org/2001/XMLSchema-instance" xsi:noNamespaceSchemaLocation="http://sumo.dlr.de/xsd/tripinfo_file.xsd">
    <tripinfo id="flow01.0" depart="4.00" departLane="n_t_0" departPos="5.10" departSpeed="0.00" departDelay="0.64" arrival="31.00" arrivalLane="t_s_0" arrivalPos="136.25" arrivalSpeed="13.70" duration="27.00" routeLength="294.90" waitingTime="0.00" waitingCount="0" stopTime="0.00" timeLoss="6.03" rerouteNo="0" devices="tripinfo_flow01.0" vType="CarA" speedFactor="1.05" vaporized=""/>
    <tripinfo id="flow03.0" depart="10.00" departLane="n_t_0" departPos="5.10" departSpeed="0.00" departDelay="0.98" arrival="41.00" arrivalLane="t_e_0" arrivalPos="136.25" arrivalSpeed="10.44" duration="31.00" routeLength="279.21" waitingTime="0.00" waitingCount="0" stopTime="0.00" timeLoss="5.90" rerouteNo="0" devices="tripinfo_flow03.0" vType="CarA" speedFactor="0.84" vaporized=""/>
    <tripinfo id="flow03.1" depart="13.00" departLane="n_t_0" departPos="5.10" departSpeed="0.00" departDelay="1.50" arrival="43.00" arrivalLane="t_e_0" arrivalPos="136.25" arrivalSpeed="13.54" duration="30.00" routeLength="279.21" waitingTime="0.00" waitingCount="0" stopTime="0.00" timeLoss="8.83" rerouteNo="0" devices="tripinfo_flow03.1" vType="CarA" speedFactor="1.03" vaporized=""/>
    <tripinfo id="flow03.2" depart="16.00" departLane="n_t_0" departPos="5.10" departSpeed="0.00" departDelay="4.25" arrival="44.00" arrivalLane="t_e_0" arrivalPos="136.25" arrivalSpeed="12.81" duration="28.00" routeLength="279.21" waitingTime="0.00" waitingCount="0" stopTime="0.00" timeLoss="6.82" rerouteNo="0" devices="tripinfo_flow03.2" vType="CarA" speedFactor="0.99" vaporized=""/>
    <tripinfo id="flow03.3" depart="21.00" departLane="n_t_0" departPos="5.10" departSpeed="0.00" departDelay="0.63" arrival="47.00" arrivalLane="t_e_0" arrivalPos="136.25" arrivalSpeed="13.71" duration="26.00" routeLength="279.21" waitingTime="0.00" waitingCount="0" stopTime="0.00" timeLoss="5.43" rerouteNo="0" devices="tripinfo_flow03.3" vType="CarA" speedFactor="1.03" vaporized=""/>
    <tripinfo id="flow02.0" depart="28.00" departLane="n_t_0" departPos="5.10" departSpeed="0.00" departDelay="0.39" arrival="54.00" arrivalLane="t_w_0" arrivalPos="136.25" arrivalSpeed="14.17" duration="26.00" routeLength="293.40" waitingTime="0.00" waitingCount="0" stopTime="0.00" timeLoss="4.42" rerouteNo="0" devices="tripinfo_flow02.0" vType="CarA" speedFactor="1.04" vaporized=""/>
    <tripinfo id="flow01.1" depart="24.00" departLane="n_t_0" departPos="5.10" departSpeed="0.00" departDelay="2.55" arrival="58.00" arrivalLane="t_s_0" arrivalPos="136.25" arrivalSpeed="10.15" duration="34.00" routeLength="294.90" waitingTime="0.00" waitingCount="0" stopTime="0.00" timeLoss="4.47" rerouteNo="0" devices="tripinfo_flow01.1" vType="CarA" speedFactor="0.73" vaporized=""/>
    <tripinfo id="flow01.2" depart="30.00" departLane="n_t_0" departPos="5.10" departSpeed="0.00" departDelay="1.91" arrival="60.00" arrivalLane="t_s_0" arrivalPos="136.25" arrivalSpeed="14.38" duration="30.00" routeLength="294.90" waitingTime="0.00" waitingCount="0" stopTime="0.00" timeLoss="10.73" rerouteNo="0" devices="tripinfo_flow01.2" vType="CarA" speedFactor="1.15" vaporized=""/>
    <tripinfo id="flow01.3" depart="36.00" departLane="n_t_0" departPos="5.10" departSpeed="0.00" departDelay="0.76" arrival="61.00" arrivalLane="t_s_0" arrivalPos="136.25" arrivalSpeed="14.04" duration="25.00" routeLength="294.90" waitingTime="0.00" waitingCount="0" stopTime="0.00" timeLoss="5.64" rerouteNo="0" devices="tripinfo_flow01.3" vType="CarA" speedFactor="1.11" vaporized=""/>
    <tripinfo id="flow01.4" depart="39.00" departLane="n_t_0" departPos="5.10" departSpeed="0.00" departDelay="1.79" arrival="65.00" arrivalLane="t_s_0" arrivalPos="136.25" arrivalSpeed="13.49" duration="26.00" routeLength="294.90" waitingTime="0.00" waitingCount="0" stopTime="0.00" timeLoss="4.13" rerouteNo="0" devices="tripinfo_flow01.4" vType="CarA" speedFactor="1.00" vaporized=""/>
    <tripinfo id="flow01.5" depart="42.00" departLane="n_t_0" departPos="5.10" departSpeed="0.00" departDelay="4.75" arrival="66.00" arrivalLane="t_s_0" arrivalPos="136.25" arrivalSpeed="14.55" duration="24.00" routeLength="294.90" waitingTime="0.00" waitingCount="0" stopTime="0.00" timeLoss="3.98" rerouteNo="0" devices="tripinfo_flow01.5" vType="CarA" speedFactor="1.06" vaporized=""/>
    <tripinfo id="flow01.6" depart="47.00" departLane="n_t_0" departPos="5.10" departSpeed="0.00" departDelay="0.68" arrival="72.00" arrivalLane="t_s_0" arrivalPos="136.25" arrivalSpeed="12.69" duration="25.00" routeLength="294.90" waitingTime="0.00" waitingCount="0" stopTime="0.00" timeLoss="3.53" rerouteNo="0" devices="tripinfo_flow01.6" vType="CarA" speedFactor="1.00" vaporized=""/>
    <tripinfo id="flow03.4" depart="49.00" departLane="n_t_0" departPos="5.10" departSpeed="0.00" departDelay="0.59" arrival="75.00" arrivalLane="t_e_0" arrivalPos="136.25" arrivalSpeed="13.56" duration="26.00" routeLength="279.21" waitingTime="0.00" waitingCount="0" stopTime="0.00" timeLoss="5.19" rerouteNo="0" devices="tripinfo_flow03.4" vType="CarA" speedFactor="1.04" vaporized=""/>
    <tripinfo id="flow03.5" depart="52.00" departLane="n_t_0" departPos="5.10" departSpeed="0.00" departDelay="2.88" arrival="79.00" arrivalLane="t_e_0" arrivalPos="136.25" arrivalSpeed="12.11" duration="27.00" routeLength="279.21" waitingTime="0.00" waitingCount="0" stopTime="0.00" timeLoss="4.56" rerouteNo="0" devices="tripinfo_flow03.5" vType="CarA" speedFactor="0.94" vaporized=""/>
    <tripinfo id="flow02.1" depart="57.00" departLane="n_t_0" departPos="5.10" departSpeed="0.00" departDelay="0.91" arrival="82.00" arrivalLane="t_w_0" arrivalPos="136.25" arrivalSpeed="14.38" duration="25.00" routeLength="293.40" waitingTime="0.00" waitingCount="0" stopTime="0.00" timeLoss="4.81" rerouteNo="0" devices="tripinfo_flow02.1" vType="CarA" speedFactor="1.11" vaporized=""/>
    <tripinfo id="flow03.6" depart="62.00" departLane="n_t_0" departPos="5.10" departSpeed="0.00" departDelay="0.30" arrival="90.00" arrivalLane="t_e_0" arrivalPos="136.25" arrivalSpeed="13.12" duration="28.00" routeLength="279.21" waitingTime="0.00" waitingCount="0" stopTime="0.00" timeLoss="5.82" rerouteNo="0" devices="tripinfo_flow03.6" vType="CarA" speedFactor="0.97" vaporized=""/>
    <tripinfo id="flow03.7" depart="66.00" departLane="n_t_0" departPos="5.10" departSpeed="0.00" departDelay="0.45" arrival="91.00" arrivalLane="t_e_0" arrivalPos="136.25" arrivalSpeed="15.66" duration="25.00" routeLength="279.21" waitingTime="0.00" waitingCount="0" stopTime="0.00" timeLoss="6.55" rerouteNo="0" devices="tripinfo_flow03.7" vType="CarA" speedFactor="1.13" vaporized=""/>
    <tripinfo id="flow01.7" depart="71.00" departLane="n_t_0" departPos="5.10" departSpeed="0.00" departDelay="0.10" arrival="94.00" arrivalLane="t_s_0" arrivalPos="136.25" arrivalSpeed="16.17" duration="23.00" routeLength="294.90" waitingTime="0.00" waitingCount="0" stopTime="0.00" timeLoss="4.68" rerouteNo="0" devices="tripinfo_flow01.7" vType="CarA" speedFactor="1.19" vaporized=""/>
    <tripinfo id="flow02.2" depart="69.00" departLane="n_t_0" departPos="5.10" departSpeed="0.00" departDelay="2.88" arrival="95.00" arrivalLane="t_w_0" arrivalPos="136.25" arrivalSpeed="13.64" duration="26.00" routeLength="293.40" waitingTime="0.00" waitingCount="0" stopTime="0.00" timeLoss="4.80" rerouteNo="0" devices="tripinfo_flow02.2" vType="CarA" speedFactor="1.05" vaporized=""/>
    <tripinfo id="flow01.8" depart="74.00" departLane="n_t_0" departPos="5.10" departSpeed="0.00" departDelay="2.09" arrival="101.00" arrivalLane="t_s_0" arrivalPos="136.25" arrivalSpeed="12.27" duration="27.00" routeLength="294.90" waitingTime="0.00" waitingCount="0" stopTime="0.00" timeLoss="4.15" rerouteNo="0" devices="tripinfo_flow01.8" vType="CarA" speedFactor="0.95" vaporized=""/>
    <tripinfo id="flow01.9" depart="77.00" departLane="n_t_0" departPos="5.10" departSpeed="0.00" departDelay="2.09" arrival="105.00" arrivalLane="t_s_0" arrivalPos="136.25" arrivalSpeed="12.20" duration="28.00" routeLength="294.90" waitingTime="0.00" waitingCount="0" stopTime="0.00" timeLoss="3.85" rerouteNo="0" devices="tripinfo_flow01.9" vType="CarA" speedFactor="0.90" vaporized=""/>
    <tripinfo id="flow01.10" depart="85.00" departLane="n_t_0" departPos="5.10" departSpeed="0.00" departDelay="0.33" arrival="112.00" arrivalLane="t_s_0" arrivalPos="136.25" arrivalSpeed="12.06" duration="27.00" routeLength="294.90" waitingTime="0.00" waitingCount="0" stopTime="0.00" timeLoss="4.45" rerouteNo="0" devices="tripinfo_flow01.10" vType="CarA" speedFactor="0.95" vaporized=""/>
    <tripinfo id="flow06.0" depart="29.00" departLane="s_t_0" departPos="5.10" departSpeed="0.00" departDelay="0.78" arrival="121.00" arrivalLane="t_e_0" arrivalPos="136.25" arrivalSpeed="16.24" duration="92.00" routeLength="293.40" waitingTime="63.00" waitingCount="1" stopTime="0.00" timeLoss="73.78" rerouteNo="0" devices="tripinfo_flow06.0" vType="CarA" speedFactor="1.18" vaporized=""/>
    <tripinfo id="flow05.0" depart="36.00" departLane="s_t_0" departPos="5.10" departSpeed="0.00" departDelay="3.51" arrival="122.00" arrivalLane="t_w_0" arrivalPos="136.25" arrivalSpeed="14.10" duration="86.00" routeLength="279.21" waitingTime="56.00" waitingCount="1" stopTime="0.00" timeLoss="65.22" rerouteNo="0" devices="tripinfo_flow05.0" vType="CarA" speedFactor="1.05" vaporized=""/>
    <tripinfo id="flow05.1" depart="43.00" departLane="s_t_0" departPos="5.10" departSpeed="0.00" departDelay="1.51" arrival="123.00" arrivalLane="t_w_0" arrivalPos="136.25" arrivalSpeed="15.53" duration="80.00" routeLength="279.21" waitingTime="52.00" waitingCount="1" stopTime="0.00" timeLoss="62.38" rerouteNo="0" devices="tripinfo_flow05.1" vType="CarA" speedFactor="1.20" vaporized=""/>
    <tripinfo id="flow04.0" depart="14.00" departLane="s_t_0" departPos="5.10" departSpeed="0.00" departDelay="0.76" arrival="125.00" arrivalLane="t_n_0" arrivalPos="136.25" arrivalSpeed="11.59" duration="111.00" routeLength="294.90" waitingTime="77.00" waitingCount="1" stopTime="0.00" timeLoss="85.68" rerouteNo="0" devices="tripinfo_flow04.0" vType="CarA" speedFactor="0.86" vaporized=""/>
    <tripinfo id="flow06.1" depart="41.00" departLane="s_t_0" departPos="5.10" departSpeed="0.00" departDelay="3.64" arrival="125.00" arrivalLane="t_e_0" arrivalPos="136.25" arrivalSpeed="13.83" duration="84.00" routeLength="293.40" waitingTime="52.00" waitingCount="1" stopTime="0.00" timeLoss="61.49" rerouteNo="0" devices="tripinfo_flow06.1" vType="CarA" speedFactor="1.00" vaporized=""/>
    <tripinfo id="flow04.1" depart="17.00" departLane="s_t_0" departPos="5.10" departSpeed="0.00" departDelay="3.44" arrival="127.00" arrivalLane="t_n_0" arrivalPos="136.25" arrivalSpeed="11.77" duration="110.00" routeLength="294.90" waitingTime="76.00" waitingCount="1" stopTime="0.00" timeLoss="84.84" rerouteNo="0" devices="tripinfo_flow04.1" vType="CarA" speedFactor="0.87" vaporized=""/>
    <tripinfo id="flow06.2" depart="57.00" departLane="s_t_0" departPos="5.10" departSpeed="0.00" departDelay="2.44" arrival="127.00" arrivalLane="t_e_0" arrivalPos="136.25" arrivalSpeed="13.21" duration="70.00" routeLength="293.40" waitingTime="36.00" waitingCount="1" stopTime="0.00" timeLoss="47.06" rerouteNo="0" devices="tripinfo_flow06.2" vType="CarA" speedFactor="0.96" vaporized=""/>
    <tripinfo id="flow05.2" depart="79.00" departLane="s_t_0" departPos="5.10" departSpeed="0.00" departDelay="0.06" arrival="127.00" arrivalLane="t_w_0" arrivalPos="136.25" arrivalSpeed="12.75" duration="48.00" routeLength="279.21" waitingTime="16.00" waitingCount="1" stopTime="0.00" timeLoss="25.59" rerouteNo="0" devices="tripinfo_flow05.2" vType="CarA" speedFactor="0.97" vaporized=""/>
    <tripinfo id="flow04.2" depart="20.00" departLane="s_t_0" departPos="5.10" departSpeed="0.00" departDelay="4.83" arrival="128.00" arrivalLane="t_n_0" arrivalPos="136.25" arrivalSpeed="12.68" duration="108.00" routeLength="294.90" waitingTime="75.00" waitingCount="1" stopTime="0.00" timeLoss="86.15" rerouteNo="0" devices="tripinfo_flow04.2" vType="CarA" speedFactor="0.98" vaporized=""/>
    <tripinfo id="flow05.3" depart="85.00" departLane="s_t_0" departPos="5.10" departSpeed="0.00" departDelay="0.46" arrival="128.00" arrivalLane="t_w_0" arrivalPos="136.25" arrivalSpeed="13.09" duration="43.00" routeLength="279.21" waitingTime="11.00" waitingCount="1" stopTime="0.00" timeLoss="22.69" rerouteNo="0" devices="tripinfo_flow05.3" vType="CarA" speedFactor="1.02" vaporized=""/>
    <tripinfo id="flow06.3" depart="88.00" departLane="s_t_0" departPos="5.10" departSpeed="0.00" departDelay="3.32" arrival="129.00" arrivalLane="t_e_0" arrivalPos="136.25" arrivalSpeed="13.80" duration="41.00" routeLength="293.40" waitingTime="8.00" waitingCount="1" stopTime="0.00" timeLoss="20.13" rerouteNo="0" devices="tripinfo_flow06.3" vType="CarA" speedFactor="1.07" vaporized=""/>
    <tripinfo id="flow04.3" depart="23.00" departLane="s_t_0" departPos="5.10" departSpeed="0.00" departDelay="3.59" arrival="130.00" arrivalLane="t_n_0" arrivalPos="136.25" arrivalSpeed="14.51" duration="107.00" routeLength="294.90" waitingTime="73.00" waitingCount="1" stopTime="0.00" timeLoss="87.46" rerouteNo="0" devices="tripinfo_flow04.3" vType="CarA" speedFactor="1.12" vaporized=""/>
    <tripinfo id="flow06.4" depart="106.00" departLane="s_t_0" departPos="5.10" departSpeed="0.00" departDelay="0.43" arrival="131.00" arrivalLane="t_e_0" arrivalPos="136.25" arrivalSpeed="14.70" duration="25.00" routeLength="293.40" waitingTime="0.00" waitingCount="0" stopTime="0.00" timeLoss="4.85" rerouteNo="0" devices="tripinfo_flow06.4" vType="CarA" speedFactor="1.12" vaporized=""/>
    <tripinfo id="flow04.4" depart="33.00" departLane="s_t_0" departPos="5.10" departSpeed="0.00" departDelay="0.57" arrival="132.00" arrivalLane="t_n_0" arrivalPos="136.25" arrivalSpeed="14.17" duration="99.00" routeLength="294.90" waitingTime="65.00" waitingCount="1" stopTime="0.00" timeLoss="77.99" rerouteNo="0" devices="tripinfo_flow04.4" vType="CarA" speedFactor="1.06" vaporized=""/>
    <tripinfo id="flow05.4" depart="89.00" departLane="s_t_0" departPos="5.10" departSpeed="0.00" departDelay="2.74" arrival="132.00" arrivalLane="t_w_0" arrivalPos="136.25" arrivalSpeed="11.78" duration="43.00" routeLength="279.21" waitingTime="9.00" waitingCount="1" stopTime="0.00" timeLoss="19.85" rerouteNo="0" devices="tripinfo_flow05.4" vType="CarA" speedFactor="0.91" vaporized=""/>
    <tripinfo id="flow04.5" depart="39.00" departLane="s_t_0" departPos="5.10" departSpeed="0.00" departDelay="2.90" arrival="134.00" arrivalLane="t_n_0" arrivalPos="136.25" arrivalSpeed="11.67" duration="95.00" routeLength="294.90" waitingTime="61.00" waitingCount="1" stopTime="0.00" timeLoss="70.14" rerouteNo="0" devices="tripinfo_flow04.5" vType="CarA" speedFactor="0.86" vaporized=""/>
    <tripinfo id="flow05.5" depart="94.00" departLane="s_t_0" departPos="5.10" departSpeed="0.00" departDelay="0.03" arrival="134.00" arrivalLane="t_w_0" arrivalPos="136.25" arrivalSpeed="13.76" duration="40.00" routeLength="279.21" waitingTime="5.00" waitingCount="1" stopTime="0.00" timeLoss="18.36" rerouteNo="0" devices="tripinfo_flow05.5" vType="CarA" speedFactor="0.99" vaporized=""/>
    <tripinfo id="flow04.6" depart="53.00" departLane="s_t_0" departPos="5.10" departSpeed="0.00" departDelay="0.72" arrival="136.00" arrivalLane="t_n_0" arrivalPos="136.25" arrivalSpeed="13.00" duration="83.00" routeLength="294.90" waitingTime="49.00" waitingCount="1" stopTime="0.00" timeLoss="60.22" rerouteNo="0" devices="tripinfo_flow04.6" vType="CarA" speedFactor="0.94" vaporized=""/>
    <tripinfo id="flow09.0" depart="4.00" departLane="w_t_0" departPos="5.10" departSpeed="0.00" departDelay="0.14" arrival="139.00" arrivalLane="t_n_0" arrivalPos="136.25" arrivalSpeed="13.44" duration="135.00" routeLength="279.21" waitingTime="105.00" waitingCount="1" stopTime="0.00" timeLoss="114.95" rerouteNo="0" devices="tripinfo_flow09.0" vType="CarA" speedFactor="1.05" vaporized=""/>
    <tripinfo id="flow07.0" depart="10.00" departLane="w_t_0" departPos="5.10" departSpeed="0.00" departDelay="0.19" arrival="140.00" arrivalLane="t_e_0" arrivalPos="136.25" arrivalSpeed="14.55" duration="130.00" routeLength="294.90" waitingTime="100.00" waitingCount="1" stopTime="0.00" timeLoss="110.11" rerouteNo="0" devices="tripinfo_flow07.0" vType="CarA" speedFactor="1.10" vaporized=""/>
    <tripinfo id="flow08.0" depart="19.00" departLane="w_t_0" departPos="5.10" departSpeed="0.00" departDelay="4.57" arrival="141.00" arrivalLane="t_s_0" arrivalPos="136.25" arrivalSpeed="12.46" duration="122.00" routeLength="293.40" waitingTime="90.00" waitingCount="1" stopTime="0.00" timeLoss="99.54" rerouteNo="0" devices="tripinfo_flow08.0" vType="CarA" speedFactor="0.99" vaporized=""/>
    <tripinfo id="flow09.1" depart="21.00" departLane="w_t_0" departPos="5.10" departSpeed="0.00" departDelay="5.91" arrival="141.00" arrivalLane="t_n_0" arrivalPos="136.25" arrivalSpeed="14.35" duration="120.00" routeLength="279.21" waitingTime="90.00" waitingCount="1" stopTime="0.00" timeLoss="100.49" rerouteNo="0" devices="tripinfo_flow09.1" vType="CarA" speedFactor="1.08" vaporized=""/>
    <tripinfo id="flow08.1" depart="72.00" departLane="w_t_0" departPos="5.10" departSpeed="0.00" departDelay="0.75" arrival="142.00" arrivalLane="t_s_0" arrivalPos="136.25" arrivalSpeed="14.82" duration="70.00" routeLength="293.40" waitingTime="39.00" waitingCount="1" stopTime="0.00" timeLoss="50.90" rerouteNo="0" devices="tripinfo_flow08.1" vType="CarA" speedFactor="1.13" vaporized=""/>
    <tripinfo id="flow07.1" depart="13.00" departLane="w_t_0" departPos="5.10" departSpeed="0.00" departDelay="2.47" arrival="143.00" arrivalLane="t_e_0" arrivalPos="136.25" arrivalSpeed="13.27" duration="130.00" routeLength="294.90" waitingTime="97.00" waitingCount="1" stopTime="0.00" timeLoss="108.02" rerouteNo="0" devices="tripinfo_flow07.1" vType="CarA" speedFactor="1.00" vaporized=""/>
    <tripinfo id="flow03.8" depart="93.00" departLane="n_t_0" departPos="5.10" departSpeed="0.00" departDelay="0.27" arrival="149.00" arrivalLane="t_e_0" arrivalPos="136.25" arrivalSpeed="12.47" duration="56.00" routeLength="279.21" waitingTime="25.00" waitingCount="1" stopTime="0.00" timeLoss="34.66" rerouteNo="0" devices="tripinfo_flow03.8" vType="CarA" speedFactor="0.98" vaporized=""/>
    <tripinfo id="flow02.3" depart="117.00" departLane="n_t_0" departPos="5.10" departSpeed="0.00" departDelay="0.31" arrival="149.00" arrivalLane="t_w_0" arrivalPos="136.25" arrivalSpeed="16.05" duration="32.00" routeLength="293.40" waitingTime="2.00" waitingCount="1" stopTime="0.00" timeLoss="12.76" rerouteNo="0" devices="tripinfo_flow02.3" vType="CarA" speedFactor="1.16" vaporized=""/>
    <tripinfo id="flow01.11" depart="102.00" departLane="n_t_0" departPos="5.10" departSpeed="0.00" departDelay="0.97" arrival="150.00" arrivalLane="t_s_0" arrivalPos="136.25" arrivalSpeed="12.89" duration="48.00" routeLength="294.90" waitingTime="16.00" waitingCount="1" stopTime="0.00" timeLoss="25.93" rerouteNo="0" devices="tripinfo_flow01.11" vType="CarA" speedFactor="0.99" vaporized=""/>
    <tripinfo id="flow02.4" depart="119.00" departLane="n_t_0" departPos="5.10" departSpeed="0.00" departDelay="0.51" arrival="152.00" arrivalLane="t_w_0" arrivalPos="136.25" arrivalSpeed="13.83" duration="33.00" routeLength="293.40" waitingTime="1.00" waitingCount="1" stopTime="0.00" timeLoss="11.71" rerouteNo="0" devices="tripinfo_flow02.4" vType="CarA" speedFactor="1.02" vaporized=""/>
    <tripinfo id="flow03.9" depart="97.00" departLane="n_t_0" departPos="5.10" departSpeed="0.00" departDelay="0.05" arrival="153.00" arrivalLane="t_e_0" arrivalPos="136.25" arrivalSpeed="11.07" duration="56.00" routeLength="279.21" waitingTime="21.00" waitingCount="1" stopTime="0.00" timeLoss="32.36" rerouteNo="0" devices="tripinfo_flow03.9" vType="CarA" speedFactor="0.89" vaporized=""/>
    <tripinfo id="flow02.5" depart="123.00" departLane="n_t_0" departPos="5.10" departSpeed="0.00" departDelay="0.18" arrival="157.00" arrivalLane="t_w_0" arrivalPos="136.25" arrivalSpeed="11.31" duration="34.00" routeLength="293.40" waitingTime="0.00" waitingCount="0" stopTime="0.00" timeLoss="7.41" rerouteNo="0" devices="tripinfo_flow02.5" vType="CarA" speedFactor="0.82" vaporized=""/>
    <tripinfo id="flow03.10" depart="105.00" departLane="n_t_0" departPos="5.10" departSpeed="0.00" departDelay="0.95" arrival="160.00" arrivalLane="t_e_0" arrivalPos="136.25" arrivalSpeed="8.81" duration="55.00" routeLength="279.21" waitingTime="13.00" waitingCount="1" stopTime="0.00" timeLoss="25.11" rerouteNo="0" devices="tripinfo_flow03.10" vType="CarA" speedFactor="0.71" vaporized=""/>
    <tripinfo id="flow01.12" depart="133.00" departLane="n_t_0" departPos="5.10" departSpeed="0.00" departDelay="0.65" arrival="160.00" arrivalLane="t_s_0" arrivalPos="136.25" arrivalSpeed="13.01" duration="27.00" routeLength="294.90" waitingTime="0.00" waitingCount="0" stopTime="0.00" timeLoss="4.39" rerouteNo="0" devices="tripinfo_flow01.12" vType="CarA" speedFactor="0.97" vaporized=""/>
    <tripinfo id="flow02.6" depart="136.00" departLane="n_t_0" departPos="5.10" departSpeed="0.00" departDelay="2.07" arrival="163.00" arrivalLane="t_w_0" arrivalPos="136.25" arrivalSpeed="13.65" duration="27.00" routeLength="293.40" waitingTime="0.00" waitingCount="0" stopTime="0.00" timeLoss="5.15" rerouteNo="0" devices="tripinfo_flow02.6" vType="CarA" speedFactor="1.03" vaporized=""/>
    <tripinfo id="flow01.13" depart="138.00" departLane="n_t_0" departPos="5.10" departSpeed="0.00" departDelay="1.10" arrival="163.00" arrivalLane="t_s_0" arrivalPos="136.25" arrivalSpeed="13.26" duration="25.00" routeLength="294.90" waitingTime="0.00" waitingCount="0" stopTime="0.00" timeLoss="3.75" rerouteNo="0" devices="tripinfo_flow01.13" vType="CarA" speedFactor="1.01" vaporized=""/>
    <tripinfo id="flow10.0" depart="14.00" departLane="e_t_0" departPos="5.10" departSpeed="0.00" departDelay="1.67" arrival="169.00" arrivalLane="t_w_0" arrivalPos="136.25" arrivalSpeed="14.56" duration="155.00" routeLength="294.90" waitingTime="126.00" waitingCount="1" stopTime="0.00" timeLoss="135.13" rerouteNo="0" devices="tripinfo_flow10.0" vType="CarA" speedFactor="1.08" vaporized=""/>
    <tripinfo id="flow12.0" depart="61.00" departLane="e_t_0" departPos="5.10" departSpeed="0.00" departDelay="0.95" arrival="169.00" arrivalLane="t_n_0" arrivalPos="136.25" arrivalSpeed="13.10" duration="108.00" routeLength="293.40" waitingTime="77.00" waitingCount="1" stopTime="0.00" timeLoss="86.38" rerouteNo="0" devices="tripinfo_flow12.0" vType="CarA" speedFactor="1.01" vaporized=""/>
    <tripinfo id="flow11.0" depart="11.00" departLane="e_t_0" departPos="5.10" departSpeed="0.00" departDelay="0.51" arrival="170.00" arrivalLane="t_s_0" arrivalPos="136.25" arrivalSpeed="11.78" duration="159.00" routeLength="279.21" waitingTime="127.00" waitingCount="1" stopTime="0.00" timeLoss="134.77" rerouteNo="0" devices="tripinfo_flow11.0" vType="CarA" speedFactor="0.87" vaporized=""/>
    <tripinfo id="flow10.1" depart="17.00" departLane="e_t_0" departPos="5.10" departSpeed="0.00" departDelay="3.44" arrival="172.00" arrivalLane="t_w_0" arrivalPos="136.25" arrivalSpeed="13.26" duration="155.00" routeLength="294.90" waitingTime="122.00" waitingCount="1" stopTime="0.00" timeLoss="132.72" rerouteNo="0" devices="tripinfo_flow10.1" vType="CarA" speedFactor="0.97" vaporized=""/>
    <tripinfo id="flow11.1" depart="20.00" departLane="e_t_0" departPos="5.10" departSpeed="0.00" departDelay="6.49" arrival="172.00" arrivalLane="t_s_0" arrivalPos="136.25" arrivalSpeed="13.46" duration="152.00" routeLength="279.21" waitingTime="120.00" waitingCount="1" stopTime="0.00" timeLoss="131.78" rerouteNo="0" devices="tripinfo_flow11.1" vType="CarA" speedFactor="1.05" vaporized=""/>
    <tripinfo id="flow12.1" depart="65.00" departLane="e_t_0" departPos="5.10" departSpeed="0.00" departDelay="2.72" arrival="172.00" arrivalLane="t_n_0" arrivalPos="136.25" arrivalSpeed="13.02" duration="107.00" routeLength="293.40" waitingTime="73.00" waitingCount="1" stopTime="0.00" timeLoss="83.85" rerouteNo="0" devices="tripinfo_flow12.1" vType="CarA" speedFactor="0.96" vaporized=""/>
    <tripinfo id="flow01.14" depart="144.00" departLane="n_t_0" departPos="5.10" departSpeed="0.00" departDelay="0.23" arrival="178.00" arrivalLane="t_s_0" arrivalPos="136.25" arrivalSpeed="15.80" duration="34.00" routeLength="294.90" waitingTime="4.00" waitingCount="1" stopTime="0.00" timeLoss="14.82" rerouteNo="0" devices="tripinfo_flow01.14" vType="CarA" speedFactor="1.17" vaporized=""/>
    <tripinfo id="flow02.7" depart="147.00" departLane="n_t_0" departPos="5.10" departSpeed="0.00" departDelay="3.82" arrival="181.00" arrivalLane="t_w_0" arrivalPos="136.25" arrivalSpeed="10.68" duration="34.00" routeLength="293.40" waitingTime="0.00" waitingCount="0" stopTime="0.00" timeLoss="7.22" rerouteNo="0" devices="tripinfo_flow02.7" vType="CarA" speedFactor="0.83" vaporized=""/>
    <tripinfo id="flow03.11" depart="154.00" departLane="n_t_0" departPos="5.10" departSpeed="0.00" departDelay="0.28" arrival="182.00" arrivalLane="t_e_0" arrivalPos="136.25" arrivalSpeed="12.93" duration="28.00" routeLength="279.21" waitingTime="0.00" waitingCount="0" stopTime="0.00" timeLoss="5.14" rerouteNo="0" devices="tripinfo_flow03.11" vType="CarA" speedFactor="0.95" vaporized=""/>
    <tripinfo id="flow02.8" depart="149.00" departLane="n_t_0" departPos="5.10" departSpeed="0.00" departDelay="1.38" arrival="183.00" arrivalLane="t_w_0" arrivalPos="136.25" arrivalSpeed="12.85" duration="34.00" routeLength="293.40" waitingTime="0.00" waitingCount="0" stopTime="0.00" timeLoss="11.43" rerouteNo="0" devices="tripinfo_flow02.8" vType="CarA" speedFactor="0.99" vaporized=""/>
    <tripinfo id="flow01.15" depart="162.00" departLane="n_t_0" departPos="5.10" departSpeed="0.00" departDelay="0.42" arrival="185.00" arrivalLane="t_s_0" arrivalPos="136.25" arrivalSpeed="16.63" duration="23.00" routeLength="294.90" waitingTime="0.00" waitingCount="0" stopTime="0.00" timeLoss="4.42" rerouteNo="0" devices="tripinfo_flow01.15" vType="CarA" speedFactor="1.20" vaporized=""/>
    <tripinfo id="flow02.9" depart="158.00" departLane="n_t_0" departPos="5.10" departSpeed="0.00" departDelay="0.48" arrival="189.00" arrivalLane="t_w_0" arrivalPos="136.25" arrivalSpeed="11.02" duration="31.00" routeLength="293.40" waitingTime="0.00" waitingCount="0" stopTime="0.00" timeLoss="4.35" rerouteNo="0" devices="tripinfo_flow02.9" vType="CarA" speedFactor="0.83" vaporized=""/>
    <tripinfo id="flow02.10" depart="161.00" departLane="n_t_0" departPos="5.10" departSpeed="0.00" departDelay="0.97" arrival="191.00" arrivalLane="t_w_0" arrivalPos="136.25" arrivalSpeed="12.64" duration="30.00" routeLength="293.40" waitingTime="0.00" waitingCount="0" stopTime="0.00" timeLoss="7.17" rerouteNo="0" devices="tripinfo_flow02.10" vType="CarA" speedFactor="0.98" vaporized=""/>
    <tripinfo id="flow03.12" depart="165.00" departLane="n_t_0" departPos="5.10" departSpeed="0.00" departDelay="0.91" arrival="193.00" arrivalLane="t_e_0" arrivalPos="136.25" arrivalSpeed="12.41" duration="28.00" routeLength="279.21" waitingTime="0.00" waitingCount="0" stopTime="0.00" timeLoss="5.15" rerouteNo="0" devices="tripinfo_flow03.12" vType="CarA" speedFactor="0.95" vaporized=""/>
    <tripinfo id="flow11.2" depart="23.00" departLane="e_t_0" departPos="5.10" departSpeed="0.00" departDelay="7.32" arrival="199.00" arrivalLane="t_s_0" arrivalPos="136.25" arrivalSpeed="14.30" duration="176.00" routeLength="279.21" waitingTime="141.00" waitingCount="2" stopTime="0.00" timeLoss="155.49" rerouteNo="0" devices="tripinfo_flow11.2" vType="CarA" speedFactor="1.06" vaporized=""/>
    <tripinfo id="flow12.2" depart="71.00" departLane="e_t_0" departPos="5.10" departSpeed="0.00" departDelay="2.58" arrival="199.00" arrivalLane="t_n_0" arrivalPos="136.25" arrivalSpeed="15.30" duration="128.00" routeLength="293.40" waitingTime="94.00" waitingCount="2" stopTime="0.00" timeLoss="107.71" rerouteNo="0" devices="tripinfo_flow12.2" vType="CarA" speedFactor="1.11" vaporized=""/>
    <tripinfo id="flow10.2" depart="29.00" departLane="e_t_0" departPos="5.10" departSpeed="0.00" departDelay="0.02" arrival="200.00" arrivalLane="t_w_0" arrivalPos="136.25" arrivalSpeed="13.33" duration="171.00" routeLength="294.90" waitingTime="135.00" waitingCount="2" stopTime="0.00" timeLoss="149.89" rerouteNo="0" devices="tripinfo_flow10.2" vType="CarA" speedFactor="1.03" vaporized=""/>
    <tripinfo id="flow12.3" depart="75.00" departLane="e_t_0" departPos="5.10" departSpeed="0.00" departDelay="3.37" arrival="201.00" arrivalLane="t_n_0" arrivalPos="136.25" arrivalSpeed="13.91" duration="126.00" routeLength="293.40" waitingTime="90.00" waitingCount="2" stopTime="0.00" timeLoss="104.90" rerouteNo="0" devices="tripinfo_flow12.3" vType="CarA" speedFactor="1.04" vaporized=""/>