<?xml version="1.0" encoding="UTF-8"?>

<!-- generated on 2024-07-07 16:50:42 by Eclipse SUMO libsumo Version 1.20.0
<configuration xmlns:xsi="http://www.w3.org/2001/XMLSchema-instance" xsi:noNamespaceSchemaLocation="http://sumo.dlr.de/xsd/libsumoConfiguration.xsd">

    <input>
        <net-file value="sumo_rl/nets/2way-single-intersection/single-intersection-4.net.xml"/>
        <route-files value="/root/autodl-tmp/outputs/2024-07-07/16-49-54-1684/output.rou.xml"/>
    </input>

    <output>
        <tripinfo-output value="/root/autodl-tmp/outputs/2024-07-07/16-49-54-1684/tripinfos-8.xml"/>
    </output>

    <processing>
        <time-to-teleport value="-1"/>
        <waiting-time-memory value="1000"/>
        <max-depart-delay value="-1"/>
    </processing>

    <random_number>
        <seed value="32"/>
    </random_number>

</configuration>
-->

<tripinfos xmlns:xsi="http://www.w3.org/2001/XMLSchema-instance" xsi:noNamespaceSchemaLocation="http://sumo.dlr.de/xsd/tripinfo_file.xsd">
    <tripinfo id="flow04.0" depart="10.00" departLane="s_t_0" departPos="5.10" departSpeed="0.00" departDelay="0.80" arrival="35.00" arrivalLane="t_n_0" arrivalPos="136.25" arrivalSpeed="13.64" duration="25.00" routeLength="294.90" waitingTime="0.00" waitingCount="0" stopTime="0.00" timeLoss="3.88" rerouteNo="0" devices="tripinfo_flow04.0" vType="CarA" speedFactor="1.03" vaporized=""/>
    <tripinfo id="flow05.0" depart="13.00" departLane="s_t_0" departPos="5.10" departSpeed="0.00" departDelay="3.80" arrival="40.00" arrivalLane="t_w_0" arrivalPos="136.25" arrivalSpeed="12.93" duration="27.00" routeLength="279.21" waitingTime="0.00" waitingCount="0" stopTime="0.00" timeLoss="5.30" rerouteNo="0" devices="tripinfo_flow05.0" vType="CarA" speedFactor="0.98" vaporized=""/>
    <tripinfo id="flow06.0" depart="18.00" departLane="s_t_0" departPos="5.10" departSpeed="0.00" departDelay="0.70" arrival="46.00" arrivalLane="t_e_0" arrivalPos="136.25" arrivalSpeed="12.25" duration="28.00" routeLength="293.40" waitingTime="0.00" waitingCount="0" stopTime="0.00" timeLoss="4.08" rerouteNo="0" devices="tripinfo_flow06.0" vType="CarA" speedFactor="0.93" vaporized=""/>
    <tripinfo id="flow06.1" depart="23.00" departLane="s_t_0" departPos="5.10" departSpeed="0.00" departDelay="0.21" arrival="51.00" arrivalLane="t_e_0" arrivalPos="136.25" arrivalSpeed="11.57" duration="28.00" routeLength="293.40" waitingTime="0.00" waitingCount="0" stopTime="0.00" timeLoss="4.18" rerouteNo="0" devices="tripinfo_flow06.1" vType="CarA" speedFactor="0.92" vaporized=""/>
    <tripinfo id="flow05.1" depart="26.00" departLane="s_t_0" departPos="5.10" departSpeed="0.00" departDelay="0.18" arrival="53.00" arrivalLane="t_w_0" arrivalPos="136.25" arrivalSpeed="12.96" duration="27.00" routeLength="279.21" waitingTime="0.00" waitingCount="0" stopTime="0.00" timeLoss="4.99" rerouteNo="0" devices="tripinfo_flow05.1" vType="CarA" speedFactor="0.97" vaporized=""/>
    <tripinfo id="flow11.0" depart="7.00" departLane="e_t_0" departPos="5.10" departSpeed="0.00" departDelay="3.83" arrival="58.00" arrivalLane="t_s_0" arrivalPos="136.25" arrivalSpeed="14.31" duration="51.00" routeLength="279.21" waitingTime="22.00" waitingCount="1" stopTime="0.00" timeLoss="31.94" rerouteNo="0" devices="tripinfo_flow11.0" vType="CarA" speedFactor="1.11" vaporized=""/>
    <tripinfo id="flow10.0" depart="4.00" departLane="e_t_0" departPos="5.10" departSpeed="0.00" departDelay="0.68" arrival="59.00" arrivalLane="t_w_0" arrivalPos="136.25" arrivalSpeed="14.34" duration="55.00" routeLength="294.90" waitingTime="26.00" waitingCount="1" stopTime="0.00" timeLoss="34.98" rerouteNo="0" devices="tripinfo_flow10.0" vType="CarA" speedFactor="1.09" vaporized=""/>
    <tripinfo id="flow12.0" depart="17.00" departLane="e_t_0" departPos="5.10" departSpeed="0.00" departDelay="0.76" arrival="59.00" arrivalLane="t_n_0" arrivalPos="136.25" arrivalSpeed="13.92" duration="42.00" routeLength="293.40" waitingTime="14.00" waitingCount="1" stopTime="0.00" timeLoss="21.82" rerouteNo="0" devices="tripinfo_flow12.0" vType="CarA" speedFactor="1.08" vaporized=""/>
    <tripinfo id="flow11.1" depart="25.00" departLane="e_t_0" departPos="5.10" departSpeed="0.00" departDelay="2.23" arrival="59.00" arrivalLane="t_s_0" arrivalPos="136.25" arrivalSpeed="17.05" duration="34.00" routeLength="279.21" waitingTime="5.00" waitingCount="1" stopTime="0.00" timeLoss="16.95" rerouteNo="0" devices="tripinfo_flow11.1" vType="CarA" speedFactor="1.23" vaporized=""/>
    <tripinfo id="flow10.1" depart="10.00" departLane="e_t_0" departPos="5.10" departSpeed="0.00" departDelay="5.89" arrival="61.00" arrivalLane="t_w_0" arrivalPos="136.25" arrivalSpeed="14.14" duration="51.00" routeLength="294.90" waitingTime="21.00" waitingCount="1" stopTime="0.00" timeLoss="30.60" rerouteNo="0" devices="tripinfo_flow10.1" vType="CarA" speedFactor="1.06" vaporized=""/>
    <tripinfo id="flow12.1" depart="28.00" departLane="e_t_0" departPos="5.10" departSpeed="0.00" departDelay="2.46" arrival="64.00" arrivalLane="t_n_0" arrivalPos="136.25" arrivalSpeed="11.26" duration="36.00" routeLength="293.40" waitingTime="3.00" waitingCount="1" stopTime="0.00" timeLoss="10.99" rerouteNo="0" devices="tripinfo_flow12.1" vType="CarA" speedFactor="0.87" vaporized=""/>
    <tripinfo id="flow03.0" depart="16.00" departLane="n_t_0" departPos="5.10" departSpeed="0.00" departDelay="0.58" arrival="67.00" arrivalLane="t_e_0" arrivalPos="136.25" arrivalSpeed="14.61" duration="51.00" routeLength="279.21" waitingTime="22.00" waitingCount="1" stopTime="0.00" timeLoss="31.50" rerouteNo="0" devices="tripinfo_flow03.0" vType="CarA" speedFactor="1.09" vaporized=""/>
    <tripinfo id="flow01.0" depart="2.00" departLane="n_t_0" departPos="5.10" departSpeed="0.00" departDelay="0.38" arrival="68.00" arrivalLane="t_s_0" arrivalPos="136.25" arrivalSpeed="14.20" duration="66.00" routeLength="294.90" waitingTime="37.00" waitingCount="1" stopTime="0.00" timeLoss="45.47" rerouteNo="0" devices="tripinfo_flow01.0" vType="CarA" speedFactor="1.06" vaporized=""/>
    <tripinfo id="flow03.1" depart="19.00" departLane="n_t_0" departPos="5.10" departSpeed="0.00" departDelay="1.01" arrival="69.00" arrivalLane="t_e_0" arrivalPos="136.25" arrivalSpeed="13.96" duration="50.00" routeLength="279.21" waitingTime="20.00" waitingCount="1" stopTime="0.00" timeLoss="30.65" rerouteNo="0" devices="tripinfo_flow03.1" vType="CarA" speedFactor="1.09" vaporized=""/>
    <tripinfo id="flow01.1" depart="10.00" departLane="n_t_0" departPos="5.10" departSpeed="0.00" departDelay="0.03" arrival="72.00" arrivalLane="t_s_0" arrivalPos="136.25" arrivalSpeed="11.17" duration="62.00" routeLength="294.90" waitingTime="28.00" waitingCount="1" stopTime="0.00" timeLoss="37.67" rerouteNo="0" devices="tripinfo_flow01.1" vType="CarA" speedFactor="0.89" vaporized=""/>
    <tripinfo id="flow02.0" depart="45.00" departLane="n_t_0" departPos="5.10" departSpeed="0.00" departDelay="0.95" arrival="72.00" arrivalLane="t_w_0" arrivalPos="136.25" arrivalSpeed="12.83" duration="27.00" routeLength="293.40" waitingTime="0.00" waitingCount="0" stopTime="0.00" timeLoss="4.93" rerouteNo="0" devices="tripinfo_flow02.0" vType="CarA" speedFactor="1.01" vaporized=""/>
    <tripinfo id="flow01.2" depart="36.00" departLane="n_t_0" departPos="5.10" departSpeed="0.00" departDelay="0.62" arrival="73.00" arrivalLane="t_s_0" arrivalPos="136.25" arrivalSpeed="13.58" duration="37.00" routeLength="294.90" waitingTime="5.00" waitingCount="1" stopTime="0.00" timeLoss="16.84" rerouteNo="0" devices="tripinfo_flow01.2" vType="CarA" speedFactor="1.05" vaporized=""/>
    <tripinfo id="flow03.2" depart="24.00" departLane="n_t_0" departPos="5.10" departSpeed="0.00" departDelay="0.65" arrival="74.00" arrivalLane="t_e_0" arrivalPos="136.25" arrivalSpeed="12.34" duration="50.00" routeLength="279.21" waitingTime="16.00" waitingCount="1" stopTime="0.00" timeLoss="26.99" rerouteNo="0" devices="tripinfo_flow03.2" vType="CarA" speedFactor="0.94" vaporized=""/>
    <tripinfo id="flow03.3" depart="33.00" departLane="n_t_0" departPos="5.10" departSpeed="0.00" departDelay="0.64" arrival="75.00" arrivalLane="t_e_0" arrivalPos="136.25" arrivalSpeed="13.05" duration="42.00" routeLength="279.21" waitingTime="10.00" waitingCount="1" stopTime="0.00" timeLoss="21.32" rerouteNo="0" devices="tripinfo_flow03.3" vType="CarA" speedFactor="1.02" vaporized=""/>
    <tripinfo id="flow03.4" depart="48.00" departLane="n_t_0" departPos="5.10" departSpeed="0.00" departDelay="0.33" arrival="79.00" arrivalLane="t_e_0" arrivalPos="136.25" arrivalSpeed="11.67" duration="31.00" routeLength="279.21" waitingTime="0.00" waitingCount="0" stopTime="0.00" timeLoss="7.34" rerouteNo="0" devices="tripinfo_flow03.4" vType="CarA" speedFactor="0.89" vaporized=""/>
    <tripinfo id="flow03.5" depart="53.00" departLane="n_t_0" departPos="5.10" departSpeed="0.00" departDelay="0.37" arrival="81.00" arrivalLane="t_e_0" arrivalPos="136.25" arrivalSpeed="13.17" duration="28.00" routeLength="279.21" waitingTime="0.00" waitingCount="0" stopTime="0.00" timeLoss="6.57" rerouteNo="0" devices="tripinfo_flow03.5" vType="CarA" speedFactor="1.01" vaporized=""/>
    <tripinfo id="flow02.1" depart="73.00" departLane="n_t_0" departPos="5.10" departSpeed="0.00" departDelay="0.38" arrival="99.00" arrivalLane="t_w_0" arrivalPos="136.25" arrivalSpeed="12.77" duration="26.00" routeLength="293.40" waitingTime="0.00" waitingCount="0" stopTime="0.00" timeLoss="4.21" rerouteNo="0" devices="tripinfo_flow02.1" vType="CarA" speedFactor="1.00" vaporized=""/>
    <tripinfo id="flow02.2" depart="76.00" departLane="n_t_0" departPos="5.10" departSpeed="0.00" departDelay="0.17" arrival="104.00" arrivalLane="t_w_0" arrivalPos="136.25" arrivalSpeed="11.88" duration="28.00" routeLength="293.40" waitingTime="0.00" waitingCount="0" stopTime="0.00" timeLoss="3.89" rerouteNo="0" devices="tripinfo_flow02.2" vType="CarA" speedFactor="0.92" vaporized=""/>
    <tripinfo id="flow03.6" depart="81.00" departLane="n_t_0" departPos="5.10" departSpeed="0.00" departDelay="0.36" arrival="105.00" arrivalLane="t_e_0" arrivalPos="136.25" arrivalSpeed="15.43" duration="24.00" routeLength="279.21" waitingTime="0.00" waitingCount="0" stopTime="0.00" timeLoss="5.72" rerouteNo="0" devices="tripinfo_flow03.6" vType="CarA" speedFactor="1.17" vaporized=""/>
    <tripinfo id="flow02.3" depart="86.00" departLane="n_t_0" departPos="5.10" departSpeed="0.00" departDelay="0.08" arrival="114.00" arrivalLane="t_w_0" arrivalPos="136.25" arrivalSpeed="12.63" duration="28.00" routeLength="293.40" waitingTime="0.00" waitingCount="0" stopTime="0.00" timeLoss="4.81" rerouteNo="0" devices="tripinfo_flow02.3" vType="CarA" speedFactor="0.96" vaporized=""/>
    <tripinfo id="flow03.7" depart="93.00" departLane="n_t_0" departPos="5.10" departSpeed="0.00" departDelay="0.33" arrival="118.00" arrivalLane="t_e_0" arrivalPos="136.25" arrivalSpeed="14.21" duration="25.00" routeLength="279.21" waitingTime="0.00" waitingCount="0" stopTime="0.00" timeLoss="5.63" rerouteNo="0" devices="tripinfo_flow03.7" vType="CarA" speedFactor="1.11" vaporized=""/>
    <tripinfo id="flow03.8" depart="96.00" departLane="n_t_0" departPos="5.10" departSpeed="0.00" departDelay="0.42" arrival="124.00" arrivalLane="t_e_0" arrivalPos="136.25" arrivalSpeed="13.09" duration="28.00" routeLength="279.21" waitingTime="0.00" waitingCount="0" stopTime="0.00" timeLoss="5.32" rerouteNo="0" devices="tripinfo_flow03.8" vType="CarA" speedFactor="0.94" vaporized=""/>
    <tripinfo id="flow02.4" depart="101.00" departLane="n_t_0" departPos="5.10" departSpeed="0.00" departDelay="0.69" arrival="130.00" arrivalLane="t_w_0" arrivalPos="136.25" arrivalSpeed="12.05" duration="29.00" routeLength="293.40" waitingTime="0.00" waitingCount="0" stopTime="0.00" timeLoss="4.73" rerouteNo="0" devices="tripinfo_flow02.4" vType="CarA" speedFactor="0.93" vaporized=""/>
    <tripinfo id="flow01.3" depart="107.00" departLane="n_t_0" departPos="5.10" departSpeed="0.00" departDelay="0.91" arrival="137.00" arrivalLane="t_s_0" arrivalPos="136.25" arrivalSpeed="11.06" duration="30.00" routeLength="294.90" waitingTime="0.00" waitingCount="0" stopTime="0.00" timeLoss="4.21" rerouteNo="0" devices="tripinfo_flow01.3" vType="CarA" speedFactor="0.84" vaporized=""/>
    <tripinfo id="flow02.5" depart="113.00" departLane="n_t_0" departPos="5.10" departSpeed="0.00" departDelay="0.61" arrival="141.00" arrivalLane="t_w_0" arrivalPos="136.25" arrivalSpeed="12.61" duration="28.00" routeLength="293.40" waitingTime="0.00" waitingCount="0" stopTime="0.00" timeLoss="4.83" rerouteNo="0" devices="tripinfo_flow02.5" vType="CarA" speedFactor="0.97" vaporized=""/>
    <tripinfo id="flow02.6" depart="115.00" departLane="n_t_0" departPos="5.10" departSpeed="0.00" departDelay="2.32" arrival="143.00" arrivalLane="t_w_0" arrivalPos="136.25" arrivalSpeed="12.62" duration="28.00" routeLength="293.40" waitingTime="0.00" waitingCount="0" stopTime="0.00" timeLoss="5.44" rerouteNo="0" devices="tripinfo_flow02.6" vType="CarA" speedFactor="1.00" vaporized=""/>
    <tripinfo id="flow01.4" depart="118.00" departLane="n_t_0" departPos="5.10" departSpeed="0.00" departDelay="0.14" arrival="143.00" arrivalLane="t_s_0" arrivalPos="136.25" arrivalSpeed="13.65" duration="25.00" routeLength="294.90" waitingTime="0.00" waitingCount="0" stopTime="0.00" timeLoss="3.89" rerouteNo="0" devices="tripinfo_flow01.4" vType="CarA" speedFactor="1.04" vaporized=""/>
    <tripinfo id="flow02.7" depart="121.00" departLane="n_t_0" departPos="5.10" departSpeed="0.00" departDelay="1.30" arrival="148.00" arrivalLane="t_w_0" arrivalPos="136.25" arrivalSpeed="12.14" duration="27.00" routeLength="293.40" waitingTime="0.00" waitingCount="0" stopTime="0.00" timeLoss="4.29" rerouteNo="0" devices="tripinfo_flow02.7" vType="CarA" speedFactor="0.95" vaporized=""/>
    <tripinfo id="flow01.5" depart="122.00" departLane="n_t_0" departPos="5.10" departSpeed="0.00" departDelay="0.66" arrival="148.00" arrivalLane="t_s_0" arrivalPos="136.25" arrivalSpeed="12.91" duration="26.00" routeLength="294.90" waitingTime="0.00" waitingCount="0" stopTime="0.00" timeLoss="3.90" rerouteNo="0" devices="tripinfo_flow01.5" vType="CarA" speedFactor="0.99" vaporized=""/>
    <tripinfo id="flow01.6" depart="125.00" departLane="n_t_0" departPos="5.10" departSpeed="0.00" departDelay="2.40" arrival="150.00" arrivalLane="t_s_0" arrivalPos="136.25" arrivalSpeed="13.71" duration="25.00" routeLength="294.90" waitingTime="0.00" waitingCount="0" stopTime="0.00" timeLoss="4.36" rerouteNo="0" devices="tripinfo_flow01.6" vType="CarA" speedFactor="1.04" vaporized=""/>
    <tripinfo id="flow02.8" depart="129.00" departLane="n_t_0" departPos="5.10" departSpeed="0.00" departDelay="0.22" arrival="155.00" arrivalLane="t_w_0" arrivalPos="136.25" arrivalSpeed="14.43" duration="26.00" routeLength="293.40" waitingTime="0.00" waitingCount="0" stopTime="0.00" timeLoss="4.81" rerouteNo="0" devices="tripinfo_flow02.8" vType="CarA" speedFactor="1.06" vaporized=""/>
    <tripinfo id="flow03.9" depart="131.00" departLane="n_t_0" departPos="5.10" departSpeed="0.00" departDelay="2.92" arrival="155.00" arrivalLane="t_e_0" arrivalPos="136.25" arrivalSpeed="14.82" duration="24.00" routeLength="279.21" waitingTime="0.00" waitingCount="0" stopTime="0.00" timeLoss="5.40" rerouteNo="0" devices="tripinfo_flow03.9" vType="CarA" speedFactor="1.12" vaporized=""/>
    <tripinfo id="flow03.10" depart="141.00" departLane="n_t_0" departPos="5.10" departSpeed="0.00" departDelay="0.83" arrival="165.00" arrivalLane="t_e_0" arrivalPos="136.25" arrivalSpeed="16.84" duration="24.00" routeLength="279.21" waitingTime="0.00" waitingCount="0" stopTime="0.00" timeLoss="6.67" rerouteNo="0" devices="tripinfo_flow03.10" vType="CarA" speedFactor="1.22" vaporized=""/>
    <tripinfo id="flow03.11" depart="144.00" departLane="n_t_0" departPos="5.10" departSpeed="0.00" departDelay="3.05" arrival="173.00" arrivalLane="t_e_0" arrivalPos="136.25" arrivalSpeed="12.42" duration="29.00" routeLength="279.21" waitingTime="0.00" waitingCount="0" stopTime="0.00" timeLoss="5.54" rerouteNo="0" devices="tripinfo_flow03.11" vType="CarA" speedFactor="0.92" vaporized=""/>
    <tripinfo id="flow01.7" depart="149.00" departLane="n_t_0" departPos="5.10" departSpeed="0.00" departDelay="1.52" arrival="175.00" arrivalLane="t_s_0" arrivalPos="136.25" arrivalSpeed="12.39" duration="26.00" routeLength="294.90" waitingTime="0.00" waitingCount="0" stopTime="0.00" timeLoss="3.62" rerouteNo="0" devices="tripinfo_flow01.7" vType="CarA" speedFactor="0.96" vaporized=""/>
    <tripinfo id="flow03.12" depart="153.00" departLane="n_t_0" departPos="5.10" departSpeed="0.00" departDelay="0.34" arrival="180.00" arrivalLane="t_e_0" arrivalPos="136.25" arrivalSpeed="14.24" duration="27.00" routeLength="279.21" waitingTime="0.00" waitingCount="0" stopTime="0.00" timeLoss="6.06" rerouteNo="0" devices="tripinfo_flow03.12" vType="CarA" speedFactor="1.04" vaporized=""/>
    <tripinfo id="flow02.9" depart="147.00" departLane="n_t_0" departPos="5.10" departSpeed="0.00" departDelay="4.93" arrival="181.00" arrivalLane="t_w_0" arrivalPos="136.25" arrivalSpeed="9.59" duration="34.00" routeLength="293.40" waitingTime="0.00" waitingCount="0" stopTime="0.00" timeLoss="5.06" rerouteNo="0" devices="tripinfo_flow02.9" vType="CarA" speedFactor="0.76" vaporized=""/>
    <tripinfo id="flow01.8" depart="161.00" departLane="n_t_0" departPos="5.10" departSpeed="0.00" departDelay="0.43" arrival="185.00" arrivalLane="t_s_0" arrivalPos="136.25" arrivalSpeed="15.41" duration="24.00" routeLength="294.90" waitingTime="0.00" waitingCount="0" stopTime="0.00" timeLoss="4.20" rerouteNo="0" devices="tripinfo_flow01.8" vType="CarA" speedFactor="1.11" vaporized=""/>
    <tripinfo id="flow02.10" depart="168.00" departLane="n_t_0" departPos="5.10" departSpeed="0.00" departDelay="0.80" arrival="196.00" arrivalLane="t_w_0" arrivalPos="136.25" arrivalSpeed="12.22" duration="28.00" routeLength="293.40" waitingTime="0.00" waitingCount="0" stopTime="0.00" timeLoss="4.44" rerouteNo="0" devices="tripinfo_flow02.10" vType="CarA" speedFactor="0.94" vaporized=""/>
    <tripinfo id="flow01.9" depart="177.00" departLane="n_t_0" departPos="5.10" departSpeed="0.00" departDelay="0.71" arrival="202.00" arrivalLane="t_s_0" arrivalPos="136.25" arrivalSpeed="14.16" duration="25.00" routeLength="294.90" waitingTime="0.00" waitingCount="0" stopTime="0.00" timeLoss="4.48" rerouteNo="0" devices="tripinfo_flow01.9" vType="CarA" speedFactor="1.06" vaporized=""/>
    <tripinfo id="flow02.11" depart="180.00" departLane="n_t_0" departPos="5.10" departSpeed="0.00" departDelay="2.10" arrival="206.00" arrivalLane="t_w_0" arrivalPos="136.25" arrivalSpeed="13.99" duration="26.00" routeLength="293.40" waitingTime="0.00" waitingCount="0" stopTime="0.00" timeLoss="4.01" rerouteNo="0" devices="tripinfo_flow02.11" vType="CarA" speedFactor="1.02" vaporized=""/>
    <tripinfo id="flow02.12" depart="185.00" departLane="n_t_0" departPos="5.10" departSpeed="0.00" departDelay="0.21" arrival="211.00" arrivalLane="t_w_0" arrivalPos="136.25" arrivalSpeed="14.55" duration="26.00" routeLength="293.40" waitingTime="0.00" waitingCount="0" stopTime="0.00" timeLoss="5.05" rerouteNo="0" devices="tripinfo_flow02.12" vType="CarA" speedFactor="1.06" vaporized=""/>
    <tripinfo id="flow06.2" depart="53.00" departLane="s_t_0" departPos="5.10" departSpeed="0.00" departDelay="0.11" arrival="218.00" arrivalLane="t_e_0" arrivalPos="136.25" arrivalSpeed="14.94" duration="165.00" routeLength="293.40" waitingTime="134.00" waitingCount="1" stopTime="0.00" timeLoss="144.82" rerouteNo="0" devices="tripinfo_flow06.2" vType="CarA" speedFactor="1.10" vaporized=""/>
    <tripinfo id="flow05.2" depart="30.00" departLane="s_t_0" departPos="5.10" departSpeed="0.00" departDelay="0.03" arrival="219.00" arrivalLane="t_w_0" arrivalPos="136.25" arrivalSpeed="11.80" duration="189.00" routeLength="279.21" waitingTime="156.00" waitingCount="1" stopTime="0.00" timeLoss="164.75" rerouteNo="0" devices="tripinfo_flow05.2" vType="CarA" speedFactor="0.87" vaporized=""/>
    <tripinfo id="flow06.3" depart="77.00" departLane="s_t_0" departPos="5.10" departSpeed="0.00" departDelay="0.75" arrival="219.00" arrivalLane="t_e_0" arrivalPos="136.25" arrivalSpeed="15.96" duration="142.00" routeLength="293.40" waitingTime="112.00" waitingCount="1" stopTime="0.00" timeLoss="123.38" rerouteNo="0" devices="tripinfo_flow06.3" vType="CarA" speedFactor="1.15" vaporized=""/>
    <tripinfo id="flow05.3" depart="43.00" departLane="s_t_0" departPos="5.10" departSpeed="0.00" departDelay="0.63" arrival="221.00" arrivalLane="t_w_0" arrivalPos="136.25" arrivalSpeed="12.71" duration="178.00" routeLength="279.21" waitingTime="146.00" waitingCount="1" stopTime="0.00" timeLoss="155.42" rerouteNo="0" devices="tripinfo_flow05.3" vType="CarA" speedFactor="0.94" vaporized=""/>
    <tripinfo id="flow04.1" depart="46.00" departLane="s_t_0" departPos="5.10" departSpeed="0.00" departDelay="2.23" arrival="221.00" arrivalLane="t_n_0" arrivalPos="136.25" arrivalSpeed="10.22" duration="175.00" routeLength="294.90" waitingTime="141.00" waitingCount="1" stopTime="0.00" timeLoss="148.20" rerouteNo="0" devices="tripinfo_flow04.1" vType="CarA" speedFactor="0.79" vaporized=""/>
    <tripinfo id="flow05.4" depart="49.00" departLane="s_t_0" departPos="5.10" departSpeed="0.00" departDelay="1.26" arrival="223.00" arrivalLane="t_w_0" arrivalPos="136.25" arrivalSpeed="13.88" duration="174.00" routeLength="279.21" waitingTime="141.00" waitingCount="1" stopTime="0.00" timeLoss="153.14" rerouteNo="0" devices="tripinfo_flow05.4" vType="CarA" speedFactor="1.02" vaporized=""/>
    <tripinfo id="flow04.2" depart="67.00" departLane="s_t_0" departPos="5.10" departSpeed="0.00" departDelay="0.78" arrival="223.00" arrivalLane="t_n_0" arrivalPos="136.25" arrivalSpeed="13.02" duration="156.00" routeLength="294.90" waitingTime="121.00" waitingCount="1" stopTime="0.00" timeLoss="134.01" rerouteNo="0" devices="tripinfo_flow04.2" vType="CarA" speedFactor="0.98" vaporized=""/>
    <tripinfo id="flow06.4" depart="88.00" departLane="s_t_0" departPos="5.10" departSpeed="0.00" departDelay="0.94" arrival="224.00" arrivalLane="t_e_0" arrivalPos="136.25" arrivalSpeed="12.04" duration="136.00" routeLength="293.40" waitingTime="104.00" waitingCount="1" stopTime="0.00" timeLoss="112.38" rerouteNo="0" devices="tripinfo_flow06.4" vType="CarA" speedFactor="0.92" vaporized=""/>
    <tripinfo id="flow04.3" depart="79.00" departLane="s_t_0" departPos="5.10" departSpeed="0.00" departDelay="1.81" arrival="225.00" arrivalLane="t_n_0" arrivalPos="136.25" arrivalSpeed="13.41" duration="146.00" routeLength="294.90" waitingTime="111.00" waitingCount="1" stopTime="0.00" timeLoss="127.24" rerouteNo="0" devices="tripinfo_flow04.3" vType="CarA" speedFactor="1.16" vaporized=""/>
    <tripinfo id="flow05.5" depart="101.00" departLane="s_t_0" departPos="5.10" departSpeed="0.00" departDelay="0.95" arrival="225.00" arrivalLane="t_w_0" arrivalPos="136.25" arrivalSpeed="13.66" duration="124.00" routeLength="279.21" waitingTime="92.00" waitingCount="1" stopTime="0.00" timeLoss="102.69" rerouteNo="0" devices="tripinfo_flow05.5" vType="CarA" speedFactor="0.99" vaporized=""/>
    <tripinfo id="flow06.5" depart="104.00" departLane="s_t_0" departPos="5.10" departSpeed="0.00" departDelay="2.60" arrival="226.00" arrivalLane="t_e_0" arrivalPos="136.25" arrivalSpeed="12.74" duration="122.00" routeLength="293.40" waitingTime="89.00" waitingCount="1" stopTime="0.00" timeLoss="98.76" rerouteNo="0" devices="tripinfo_flow06.5" vType="CarA" speedFactor="0.95" vaporized=""/>
    <tripinfo id="flow04.4" depart="91.00" departLane="s_t_0" departPos="5.10" departSpeed="0.00" departDelay="0.95" arrival="227.00" arrivalLane="t_n_0" arrivalPos="136.25" arrivalSpeed="11.82" duration="136.00" routeLength="294.90" waitingTime="100.00" waitingCount="1" stopTime="0.00" timeLoss="112.25" rerouteNo="0" devices="tripinfo_flow04.4" vType="CarA" speedFactor="0.92" vaporized=""/>
    <tripinfo id="flow04.5" depart="94.00" departLane="s_t_0" departPos="5.10" departSpeed="0.00" departDelay="0.57" arrival="228.00" arrivalLane="t_n_0" arrivalPos="136.25" arrivalSpeed="14.03" duration="134.00" routeLength="294.90" waitingTime="99.00" waitingCount="1" stopTime="0.00" timeLoss="113.77" rerouteNo="0" devices="tripinfo_flow04.5" vType="CarA" speedFactor="1.05" vaporized=""/>
    <tripinfo id="flow06.6" depart="105.00" departLane="s_t_0" departPos="5.10" departSpeed="0.00" departDelay="2.02" arrival="228.00" arrivalLane="t_e_0" arrivalPos="136.25" arrivalSpeed="15.66" duration="123.00" routeLength="293.40" waitingTime="88.00" waitingCount="1" stopTime="0.00" timeLoss="103.02" rerouteNo="0" devices="tripinfo_flow06.6" vType="CarA" speedFactor="1.13" vaporized=""/>
    <tripinfo id="flow05.6" depart="178.00" departLane="s_t_0" departPos="5.10" departSpeed="0.00" departDelay="0.26" arrival="229.00" arrivalLane="t_w_0" arrivalPos="136.25" arrivalSpeed="12.28" duration="51.00" routeLength="279.21" waitingTime="15.00" waitingCount="1" stopTime="0.00" timeLoss="27.98" rerouteNo="0" devices="tripinfo_flow05.6" vType="CarA" speedFactor="0.94" vaporized=""/>
    <tripinfo id="flow04.6" depart="107.00" departLane="s_t_0" departPos="5.10" departSpeed="0.00" departDelay="2.56" arrival="230.00" arrivalLane="t_n_0" arrivalPos="136.25" arrivalSpeed="13.09" duration="123.00" routeLength="294.90" waitingTime="87.00" waitingCount="1" stopTime="0.00" timeLoss="101.88" rerouteNo="0" devices="tripinfo_flow04.6" vType="CarA" speedFactor="1.02" vaporized=""/>
    <tripinfo id="flow06.7" depart="117.00" departLane="s_t_0" departPos="5.10" departSpeed="0.00" departDelay="0.44" arrival="230.00" arrivalLane="t_e_0" arrivalPos="136.25" arrivalSpeed="13.48" duration="113.00" routeLength="293.40" waitingTime="79.00" waitingCount="1" stopTime="0.00" timeLoss="89.79" rerouteNo="0" devices="tripinfo_flow06.7" vType="CarA" speedFactor="0.97" vaporized=""/>
    <tripinfo id="flow04.7" depart="119.00" departLane="s_t_0" departPos="5.10" departSpeed="0.00" departDelay="0.94" arrival="232.00" arrivalLane="t_n_0" arrivalPos="136.25" arrivalSpeed="13.25" duration="113.00" routeLength="294.90" waitingTime="79.00" waitingCount="1" stopTime="0.00" timeLoss="90.96" rerouteNo="0" devices="tripinfo_flow04.7" vType="CarA" speedFactor="0.98" vaporized=""/>
    <tripinfo id="flow06.8" depart="127.00" departLane="s_t_0" departPos="5.10" departSpeed="0.00" departDelay="0.25" arrival="233.00" arrivalLane="t_e_0" arrivalPos="136.25" arrivalSpeed="11.71" duration="106.00" routeLength="293.40" waitingTime="70.00" waitingCount="1" stopTime="0.00" timeLoss="81.22" rerouteNo="0" devices="tripinfo_flow06.8" vType="CarA" speedFactor="0.89" vaporized=""/>
    <tripinfo id="flow04.8" depart="129.00" departLane="s_t_0" departPos="5.10" departSpeed="0.00" departDelay="0.02" arrival="234.00" arrivalLane="t_n_0" arrivalPos="136.25" arrivalSpeed="12.97" duration="105.00" routeLength="294.90" waitingTime="70.00" waitingCount="1" stopTime="0.00" timeLoss="83.48" rerouteNo="0" devices="tripinfo_flow04.8" vType="CarA" speedFactor="1.02" vaporized=""/>
    <tripinfo id="flow06.9" depart="128.00" departLane="s_t_0" departPos="5.10" departSpeed="0.00" departDelay="0.94" arrival="235.00" arrivalLane="t_e_0" arrivalPos="136.25" arrivalSpeed="13.56" duration="107.00" routeLength="293.40" waitingTime="68.00" waitingCount="1" stopTime="0.00" timeLoss="85.14" rerouteNo="0" devices="tripinfo_flow06.9" vType="CarA" speedFactor="1.03" vaporized=""/>
    <tripinfo id="flow04.9" depart="147.00" departLane="s_t_0" departPos="5.10" departSpeed="0.00" departDelay="0.78" arrival="236.00" arrivalLane="t_n_0" arrivalPos="136.25" arrivalSpeed="11.74" duration="89.00" routeLength="294.90" waitingTime="53.00" waitingCount="1" stopTime="0.00" timeLoss="64.03" rerouteNo="0" devices="tripinfo_flow04.9" vType="CarA" speedFactor="0.85" vaporized=""/>
    <tripinfo id="flow06.10" depart="149.00" departLane="s_t_0" departPos="5.10" departSpeed="0.00" departDelay="2.27" arrival="236.00" arrivalLane="t_e_0" arrivalPos="136.25" arrivalSpeed="13.90" duration="87.00" routeLength="293.40" waitingTime="51.00" waitingCount="1" stopTime="0.00" timeLoss="66.12" rerouteNo="0" devices="tripinfo_flow06.10" vType="CarA" speedFactor="1.05" vaporized=""/>
    <tripinfo id="flow04.10" depart="157.00" departLane="s_t_0" departPos="5.10" departSpeed="0.00" departDelay="0.38" arrival="238.00" arrivalLane="t_n_0" arrivalPos="136.25" arrivalSpeed="14.36" duration="81.00" routeLength="294.90" waitingTime="45.00" waitingCount="1" stopTime="0.00" timeLoss="60.17" rerouteNo="0" devices="tripinfo_flow04.10" vType="CarA" speedFactor="1.04" vaporized=""/>
    <tripinfo id="flow06.11" depart="154.00" departLane="s_t_0" departPos="5.10" departSpeed="0.00" departDelay="0.22" arrival="239.00" arrivalLane="t_e_0" arrivalPos="136.25" arrivalSpeed="11.42" duration="85.00" routeLength="293.40" waitingTime="49.00" waitingCount="1" stopTime="0.00" timeLoss="60.65" rerouteNo="0" devices="tripinfo_flow06.11" vType="CarA" speedFactor="0.91" vaporized=""/>
    <tripinfo id="flow04.11" depart="181.00" departLane="s_t_0" departPos="5.10" departSpeed="0.00" departDelay="1.47" arrival="240.00" arrivalLane="t_n_0" arrivalPos="136.25" arrivalSpeed="12.19" duration="59.00" routeLength="294.90" waitingTime="22.00" waitingCount="1" stopTime="0.00" timeLoss="34.31" rerouteNo="0" devices="tripinfo_flow04.11" vType="CarA" speedFactor="0.88" vaporized=""/>