<?xml version="1.0" encoding="UTF-8"?>

<!-- generated on 2024-07-07 16:50:48 by Eclipse SUMO libsumo Version 1.20.0
<configuration xmlns:xsi="http://www.w3.org/2001/XMLSchema-instance" xsi:noNamespaceSchemaLocation="http://sumo.dlr.de/xsd/libsumoConfiguration.xsd">

    <input>
        <net-file value="sumo_rl/nets/2way-single-intersection/single-intersection-4.net.xml"/>
        <route-files value="/root/autodl-tmp/outputs/2024-07-07/16-49-54-1684/output.rou.xml"/>
    </input>

    <output>
        <tripinfo-output value="/root/autodl-tmp/outputs/2024-07-07/16-49-54-1684/tripinfos-9.xml"/>
    </output>

    <processing>
        <time-to-teleport value="-1"/>
        <waiting-time-memory value="1000"/>
        <max-depart-delay value="-1"/>
    </processing>

    <random_number>
        <seed value="33"/>
    </random_number>

</configuration>
-->

<tripinfos xmlns:xsi="http://www.w3.org/2001/XMLSchema-instance" xsi:noNamespaceSchemaLocation="http://sumo.dlr.de/xsd/tripinfo_file.xsd">
    <tripinfo id="flow04.0" depart="5.00" departLane="s_t_0" departPos="5.10" departSpeed="0.00" departDelay="0.73" arrival="30.00" arrivalLane="t_n_0" arrivalPos="136.25" arrivalSpeed="14.32" duration="25.00" routeLength="294.90" waitingTime="0.00" waitingCount="0" stopTime="0.00" timeLoss="4.67" rerouteNo="0" devices="tripinfo_flow04.0" vType="CarA" speedFactor="1.06" vaporized=""/>
    <tripinfo id="flow06.0" depart="2.00" departLane="s_t_0" departPos="5.10" departSpeed="0.00" departDelay="0.71" arrival="34.00" arrivalLane="t_e_0" arrivalPos="136.25" arrivalSpeed="12.11" duration="32.00" routeLength="293.40" waitingTime="0.00" waitingCount="0" stopTime="0.00" timeLoss="7.16" rerouteNo="0" devices="tripinfo_flow06.0" vType="CarA" speedFactor="0.89" vaporized=""/>
    <tripinfo id="flow04.1" depart="9.00" departLane="s_t_0" departPos="5.10" departSpeed="0.00" departDelay="0.63" arrival="36.00" arrivalLane="t_n_0" arrivalPos="136.25" arrivalSpeed="11.99" duration="27.00" routeLength="294.90" waitingTime="0.00" waitingCount="0" stopTime="0.00" timeLoss="3.78" rerouteNo="0" devices="tripinfo_flow04.1" vType="CarA" speedFactor="0.93" vaporized=""/>
    <tripinfo id="flow05.0" depart="14.00" departLane="s_t_0" departPos="5.10" departSpeed="0.00" departDelay="0.11" arrival="42.00" arrivalLane="t_w_0" arrivalPos="136.25" arrivalSpeed="12.66" duration="28.00" routeLength="279.21" waitingTime="0.00" waitingCount="0" stopTime="0.00" timeLoss="5.18" rerouteNo="0" devices="tripinfo_flow05.0" vType="CarA" speedFactor="0.93" vaporized=""/>
    <tripinfo id="flow04.2" depart="19.00" departLane="s_t_0" departPos="5.10" departSpeed="0.00" departDelay="0.71" arrival="42.00" arrivalLane="t_n_0" arrivalPos="136.25" arrivalSpeed="14.52" duration="23.00" routeLength="294.90" waitingTime="0.00" waitingCount="0" stopTime="0.00" timeLoss="3.54" rerouteNo="0" devices="tripinfo_flow04.2" vType="CarA" speedFactor="1.11" vaporized=""/>
    <tripinfo id="flow04.3" depart="21.00" departLane="s_t_0" departPos="5.10" departSpeed="0.00" departDelay="1.36" arrival="46.00" arrivalLane="t_n_0" arrivalPos="136.25" arrivalSpeed="13.24" duration="25.00" routeLength="294.90" waitingTime="0.00" waitingCount="0" stopTime="0.00" timeLoss="3.97" rerouteNo="0" devices="tripinfo_flow04.3" vType="CarA" speedFactor="1.03" vaporized=""/>
    <tripinfo id="flow04.4" depart="28.00" departLane="s_t_0" departPos="5.10" departSpeed="0.00" departDelay="0.85" arrival="53.00" arrivalLane="t_n_0" arrivalPos="136.25" arrivalSpeed="13.74" duration="25.00" routeLength="294.90" waitingTime="0.00" waitingCount="0" stopTime="0.00" timeLoss="3.62" rerouteNo="0" devices="tripinfo_flow04.4" vType="CarA" speedFactor="1.01" vaporized=""/>
    <tripinfo id="flow04.5" depart="36.00" departLane="s_t_0" departPos="5.10" departSpeed="0.00" departDelay="0.39" arrival="63.00" arrivalLane="t_n_0" arrivalPos="136.25" arrivalSpeed="12.25" duration="27.00" routeLength="294.90" waitingTime="0.00" waitingCount="0" stopTime="0.00" timeLoss="4.55" rerouteNo="0" devices="tripinfo_flow04.5" vType="CarA" speedFactor="0.97" vaporized=""/>
    <tripinfo id="flow05.1" depart="49.00" departLane="s_t_0" departPos="5.10" departSpeed="0.00" departDelay="0.21" arrival="75.00" arrivalLane="t_w_0" arrivalPos="136.25" arrivalSpeed="13.26" duration="26.00" routeLength="279.21" waitingTime="0.00" waitingCount="0" stopTime="0.00" timeLoss="5.35" rerouteNo="0" devices="tripinfo_flow05.1" vType="CarA" speedFactor="1.00" vaporized=""/>
    <tripinfo id="flow04.6" depart="53.00" departLane="s_t_0" departPos="5.10" departSpeed="0.00" departDelay="0.66" arrival="76.00" arrivalLane="t_n_0" arrivalPos="136.25" arrivalSpeed="15.71" duration="23.00" routeLength="294.90" waitingTime="0.00" waitingCount="0" stopTime="0.00" timeLoss="4.59" rerouteNo="0" devices="tripinfo_flow04.6" vType="CarA" speedFactor="1.17" vaporized=""/>
    <tripinfo id="flow04.7" depart="57.00" departLane="s_t_0" departPos="5.10" departSpeed="0.00" departDelay="0.28" arrival="83.00" arrivalLane="t_n_0" arrivalPos="136.25" arrivalSpeed="13.37" duration="26.00" routeLength="294.90" waitingTime="0.00" waitingCount="0" stopTime="0.00" timeLoss="3.65" rerouteNo="0" devices="tripinfo_flow04.7" vType="CarA" speedFactor="0.98" vaporized=""/>
    <tripinfo id="flow04.8" depart="61.00" departLane="s_t_0" departPos="5.10" departSpeed="0.00" departDelay="0.83" arrival="85.00" arrivalLane="t_n_0" arrivalPos="136.25" arrivalSpeed="14.65" duration="24.00" routeLength="294.90" waitingTime="0.00" waitingCount="0" stopTime="0.00" timeLoss="4.44" rerouteNo="0" devices="tripinfo_flow04.8" vType="CarA" speedFactor="1.09" vaporized=""/>
    <tripinfo id="flow04.9" depart="66.00" departLane="s_t_0" departPos="5.10" departSpeed="0.00" departDelay="1.66" arrival="92.00" arrivalLane="t_n_0" arrivalPos="136.25" arrivalSpeed="13.43" duration="26.00" routeLength="294.90" waitingTime="0.00" waitingCount="0" stopTime="0.00" timeLoss="4.28" rerouteNo="0" devices="tripinfo_flow04.9" vType="CarA" speedFactor="1.00" vaporized=""/>
    <tripinfo id="flow06.1" depart="64.00" departLane="s_t_0" departPos="5.10" departSpeed="0.00" departDelay="1.32" arrival="93.00" arrivalLane="t_e_0" arrivalPos="136.25" arrivalSpeed="11.96" duration="29.00" routeLength="293.40" waitingTime="0.00" waitingCount="0" stopTime="0.00" timeLoss="5.44" rerouteNo="0" devices="tripinfo_flow06.1" vType="CarA" speedFactor="0.95" vaporized=""/>
    <tripinfo id="flow06.2" depart="79.00" departLane="s_t_0" departPos="5.10" departSpeed="0.00" departDelay="0.09" arrival="107.00" arrivalLane="t_e_0" arrivalPos="136.25" arrivalSpeed="12.35" duration="28.00" routeLength="293.40" waitingTime="0.00" waitingCount="0" stopTime="0.00" timeLoss="4.67" rerouteNo="0" devices="tripinfo_flow06.2" vType="CarA" speedFactor="0.94" vaporized=""/>
    <tripinfo id="flow06.3" depart="81.00" departLane="s_t_0" departPos="5.10" departSpeed="0.00" departDelay="0.48" arrival="109.00" arrivalLane="t_e_0" arrivalPos="136.25" arrivalSpeed="15.34" duration="28.00" routeLength="293.40" waitingTime="0.00" waitingCount="0" stopTime="0.00" timeLoss="7.64" rerouteNo="0" devices="tripinfo_flow06.3" vType="CarA" speedFactor="1.11" vaporized=""/>
    <tripinfo id="flow05.2" depart="83.00" departLane="s_t_0" departPos="5.10" departSpeed="0.00" departDelay="1.07" arrival="113.00" arrivalLane="t_w_0" arrivalPos="136.25" arrivalSpeed="11.40" duration="30.00" routeLength="279.21" waitingTime="0.00" waitingCount="0" stopTime="0.00" timeLoss="5.12" rerouteNo="0" devices="tripinfo_flow05.2" vType="CarA" speedFactor="0.89" vaporized=""/>
    <tripinfo id="flow02.0" depart="6.00" departLane="n_t_0" departPos="5.10" departSpeed="0.00" departDelay="0.20" arrival="115.00" arrivalLane="t_w_0" arrivalPos="136.25" arrivalSpeed="13.70" duration="109.00" routeLength="293.40" waitingTime="79.00" waitingCount="1" stopTime="0.00" timeLoss="87.20" rerouteNo="0" devices="tripinfo_flow02.0" vType="CarA" speedFactor="0.99" vaporized=""/>
    <tripinfo id="flow03.0" depart="13.00" departLane="n_t_0" departPos="5.10" departSpeed="0.00" departDelay="0.52" arrival="115.00" arrivalLane="t_e_0" arrivalPos="136.25" arrivalSpeed="12.46" duration="102.00" routeLength="279.21" waitingTime="72.00" waitingCount="1" stopTime="0.00" timeLoss="80.15" rerouteNo="0" devices="tripinfo_flow03.0" vType="CarA" speedFactor="0.98" vaporized=""/>
    <tripinfo id="flow01.0" depart="16.00" departLane="n_t_0" departPos="5.10" departSpeed="0.00" departDelay="1.19" arrival="115.00" arrivalLane="t_s_0" arrivalPos="136.25" arrivalSpeed="14.17" duration="99.00" routeLength="294.90" waitingTime="69.00" waitingCount="1" stopTime="0.00" timeLoss="79.05" rerouteNo="0" devices="tripinfo_flow01.0" vType="CarA" speedFactor="1.07" vaporized=""/>
    <tripinfo id="flow03.1" depart="25.00" departLane="n_t_0" departPos="5.10" departSpeed="0.00" departDelay="0.50" arrival="117.00" arrivalLane="t_e_0" arrivalPos="136.25" arrivalSpeed="13.19" duration="92.00" routeLength="279.21" waitingTime="60.00" waitingCount="1" stopTime="0.00" timeLoss="70.80" rerouteNo="0" devices="tripinfo_flow03.1" vType="CarA" speedFactor="0.99" vaporized=""/>
    <tripinfo id="flow02.1" depart="9.00" departLane="n_t_0" departPos="5.10" departSpeed="0.00" departDelay="0.04" arrival="118.00" arrivalLane="t_w_0" arrivalPos="136.25" arrivalSpeed="12.93" duration="109.00" routeLength="293.40" waitingTime="78.00" waitingCount="1" stopTime="0.00" timeLoss="86.19" rerouteNo="0" devices="tripinfo_flow02.1" vType="CarA" speedFactor="0.97" vaporized=""/>
    <tripinfo id="flow01.1" depart="35.00" departLane="n_t_0" departPos="5.10" departSpeed="0.00" departDelay="0.93" arrival="119.00" arrivalLane="t_s_0" arrivalPos="136.25" arrivalSpeed="12.54" duration="84.00" routeLength="294.90" waitingTime="50.00" waitingCount="1" stopTime="0.00" timeLoss="60.90" rerouteNo="0" devices="tripinfo_flow01.1" vType="CarA" speedFactor="0.96" vaporized=""/>
    <tripinfo id="flow03.2" depart="42.00" departLane="n_t_0" departPos="5.10" departSpeed="0.00" departDelay="3.22" arrival="119.00" arrivalLane="t_e_0" arrivalPos="136.25" arrivalSpeed="13.32" duration="77.00" routeLength="279.21" waitingTime="45.00" waitingCount="1" stopTime="0.00" timeLoss="56.98" rerouteNo="0" devices="tripinfo_flow03.2" vType="CarA" speedFactor="1.04" vaporized=""/>
    <tripinfo id="flow02.2" depart="33.00" departLane="n_t_0" departPos="5.10" departSpeed="0.00" departDelay="0.49" arrival="120.00" arrivalLane="t_w_0" arrivalPos="136.25" arrivalSpeed="13.18" duration="87.00" routeLength="293.40" waitingTime="55.00" waitingCount="1" stopTime="0.00" timeLoss="64.22" rerouteNo="0" devices="tripinfo_flow02.2" vType="CarA" speedFactor="0.97" vaporized=""/>
    <tripinfo id="flow01.2" depart="39.00" departLane="n_t_0" departPos="5.10" departSpeed="0.00" departDelay="1.45" arrival="120.00" arrivalLane="t_s_0" arrivalPos="136.25" arrivalSpeed="12.50" duration="81.00" routeLength="294.90" waitingTime="49.00" waitingCount="1" stopTime="0.00" timeLoss="59.40" rerouteNo="0" devices="tripinfo_flow01.2" vType="CarA" speedFactor="0.99" vaporized=""/>
    <tripinfo id="flow03.3" depart="64.00" departLane="n_t_0" departPos="5.10" departSpeed="0.00" departDelay="3.91" arrival="121.00" arrivalLane="t_e_0" arrivalPos="136.25" arrivalSpeed="15.45" duration="57.00" routeLength="279.21" waitingTime="25.00" waitingCount="1" stopTime="0.00" timeLoss="37.88" rerouteNo="0" devices="tripinfo_flow03.3" vType="CarA" speedFactor="1.12" vaporized=""/>
    <tripinfo id="flow02.3" depart="38.00" departLane="n_t_0" departPos="5.10" departSpeed="0.00" departDelay="2.59" arrival="122.00" arrivalLane="t_w_0" arrivalPos="136.25" arrivalSpeed="13.96" duration="84.00" routeLength="293.40" waitingTime="51.00" waitingCount="1" stopTime="0.00" timeLoss="61.95" rerouteNo="0" devices="tripinfo_flow02.3" vType="CarA" speedFactor="1.02" vaporized=""/>
    <tripinfo id="flow01.3" depart="45.00" departLane="n_t_0" departPos="5.10" departSpeed="0.00" departDelay="2.41" arrival="122.00" arrivalLane="t_s_0" arrivalPos="136.25" arrivalSpeed="13.27" duration="77.00" routeLength="294.90" waitingTime="45.00" waitingCount="1" stopTime="0.00" timeLoss="54.82" rerouteNo="0" devices="tripinfo_flow01.3" vType="CarA" speedFactor="0.97" vaporized=""/>
    <tripinfo id="flow01.4" depart="52.00" departLane="n_t_0" departPos="5.10" departSpeed="0.00" departDelay="0.23" arrival="124.00" arrivalLane="t_s_0" arrivalPos="136.25" arrivalSpeed="13.78" duration="72.00" routeLength="294.90" waitingTime="40.00" waitingCount="1" stopTime="0.00" timeLoss="49.91" rerouteNo="0" devices="tripinfo_flow01.4" vType="CarA" speedFactor="0.99" vaporized=""/>
    <tripinfo id="flow02.4" depart="58.00" departLane="n_t_0" departPos="5.10" departSpeed="0.00" departDelay="0.79" arrival="124.00" arrivalLane="t_w_0" arrivalPos="136.25" arrivalSpeed="13.31" duration="66.00" routeLength="293.40" waitingTime="33.00" waitingCount="1" stopTime="0.00" timeLoss="43.02" rerouteNo="0" devices="tripinfo_flow02.4" vType="CarA" speedFactor="0.97" vaporized=""/>
    <tripinfo id="flow03.4" depart="67.00" departLane="n_t_0" departPos="5.10" departSpeed="0.00" departDelay="6.40" arrival="125.00" arrivalLane="t_e_0" arrivalPos="136.25" arrivalSpeed="12.69" duration="58.00" routeLength="279.21" waitingTime="24.00" waitingCount="1" stopTime="0.00" timeLoss="35.23" rerouteNo="0" devices="tripinfo_flow03.4" vType="CarA" speedFactor="0.95" vaporized=""/>
    <tripinfo id="flow02.5" depart="76.00" departLane="n_t_0" departPos="5.10" departSpeed="0.00" departDelay="0.70" arrival="125.00" arrivalLane="t_w_0" arrivalPos="136.25" arrivalSpeed="15.99" duration="49.00" routeLength="293.40" waitingTime="17.00" waitingCount="1" stopTime="0.00" timeLoss="30.40" rerouteNo="0" devices="tripinfo_flow02.5" vType="CarA" speedFactor="1.18" vaporized=""/>
    <tripinfo id="flow01.5" depart="55.00" departLane="n_t_0" departPos="5.10" departSpeed="0.00" departDelay="2.27" arrival="126.00" arrivalLane="t_s_0" arrivalPos="136.25" arrivalSpeed="11.97" duration="71.00" routeLength="294.90" waitingTime="38.00" waitingCount="1" stopTime="0.00" timeLoss="48.05" rerouteNo="0" devices="tripinfo_flow01.5" vType="CarA" speedFactor="0.95" vaporized=""/>
    <tripinfo id="flow03.5" depart="72.00" departLane="n_t_0" departPos="5.10" departSpeed="0.00" departDelay="1.41" arrival="126.00" arrivalLane="t_e_0" arrivalPos="136.25" arrivalSpeed="14.73" duration="54.00" routeLength="279.21" waitingTime="21.00" waitingCount="1" stopTime="0.00" timeLoss="35.59" rerouteNo="0" devices="tripinfo_flow03.5" vType="CarA" speedFactor="1.15" vaporized=""/>
    <tripinfo id="flow02.6" depart="96.00" departLane="n_t_0" departPos="5.10" departSpeed="0.00" departDelay="1.64" arrival="127.00" arrivalLane="t_w_0" arrivalPos="136.25" arrivalSpeed="13.82" duration="31.00" routeLength="293.40" waitingTime="0.00" waitingCount="0" stopTime="0.00" timeLoss="10.17" rerouteNo="0" devices="tripinfo_flow02.6" vType="CarA" speedFactor="1.06" vaporized=""/>
    <tripinfo id="flow03.6" depart="80.00" departLane="n_t_0" departPos="5.10" departSpeed="0.00" departDelay="0.24" arrival="131.00" arrivalLane="t_e_0" arrivalPos="136.25" arrivalSpeed="11.48" duration="51.00" routeLength="279.21" waitingTime="14.00" waitingCount="1" stopTime="0.00" timeLoss="26.37" rerouteNo="0" devices="tripinfo_flow03.6" vType="CarA" speedFactor="0.87" vaporized=""/>
    <tripinfo id="flow01.6" depart="59.00" departLane="n_t_0" departPos="5.10" departSpeed="0.00" departDelay="0.83" arrival="132.00" arrivalLane="t_s_0" arrivalPos="136.25" arrivalSpeed="9.15" duration="73.00" routeLength="294.90" waitingTime="33.00" waitingCount="1" stopTime="0.00" timeLoss="43.78" rerouteNo="0" devices="tripinfo_flow01.6" vType="CarA" speedFactor="0.75" vaporized=""/>
    <tripinfo id="flow03.7" depart="83.00" departLane="n_t_0" departPos="5.10" departSpeed="0.00" departDelay="0.52" arrival="132.00" arrivalLane="t_e_0" arrivalPos="136.25" arrivalSpeed="13.86" duration="49.00" routeLength="279.21" waitingTime="12.00" waitingCount="1" stopTime="0.00" timeLoss="29.88" rerouteNo="0" devices="tripinfo_flow03.7" vType="CarA" speedFactor="1.08" vaporized=""/>
    <tripinfo id="flow01.7" depart="62.00" departLane="n_t_0" departPos="5.10" departSpeed="0.00" departDelay="3.51" arrival="133.00" arrivalLane="t_s_0" arrivalPos="136.25" arrivalSpeed="11.79" duration="71.00" routeLength="294.90" waitingTime="32.00" waitingCount="1" stopTime="0.00" timeLoss="49.05" rerouteNo="0" devices="tripinfo_flow01.7" vType="CarA" speedFactor="0.97" vaporized=""/>
    <tripinfo id="flow03.8" depart="88.00" departLane="n_t_0" departPos="5.10" departSpeed="0.00" departDelay="0.68" arrival="134.00" arrivalLane="t_e_0" arrivalPos="136.25" arrivalSpeed="13.29" duration="46.00" routeLength="279.21" waitingTime="9.00" waitingCount="1" stopTime="0.00" timeLoss="25.58" rerouteNo="0" devices="tripinfo_flow03.8" vType="CarA" speedFactor="1.05" vaporized=""/>
    <tripinfo id="flow01.8" depart="70.00" departLane="n_t_0" departPos="5.10" departSpeed="0.00" departDelay="6.67" arrival="135.00" arrivalLane="t_s_0" arrivalPos="136.25" arrivalSpeed="14.13" duration="65.00" routeLength="294.90" waitingTime="28.00" waitingCount="1" stopTime="0.00" timeLoss="44.59" rerouteNo="0" devices="tripinfo_flow01.8" vType="CarA" speedFactor="1.06" vaporized=""/>
    <tripinfo id="flow01.9" depart="97.00" departLane="n_t_0" departPos="5.10" departSpeed="0.00" departDelay="0.60" arrival="137.00" arrivalLane="t_s_0" arrivalPos="136.25" arrivalSpeed="14.33" duration="40.00" routeLength="294.90" waitingTime="1.00" waitingCount="1" stopTime="0.00" timeLoss="20.00" rerouteNo="0" devices="tripinfo_flow01.9" vType="CarA" speedFactor="1.10" vaporized=""/>
    <tripinfo id="flow03.9" depart="93.00" departLane="n_t_0" departPos="5.10" departSpeed="0.00" departDelay="0.34" arrival="140.00" arrivalLane="t_e_0" arrivalPos="136.25" arrivalSpeed="10.29" duration="47.00" routeLength="279.21" waitingTime="6.00" waitingCount="1" stopTime="0.00" timeLoss="20.33" rerouteNo="0" devices="tripinfo_flow03.9" vType="CarA" speedFactor="0.81" vaporized=""/>
    <tripinfo id="flow03.10" depart="109.00" departLane="n_t_0" departPos="5.10" departSpeed="0.00" departDelay="0.81" arrival="142.00" arrivalLane="t_e_0" arrivalPos="136.25" arrivalSpeed="12.90" duration="33.00" routeLength="279.21" waitingTime="0.00" waitingCount="0" stopTime="0.00" timeLoss="11.70" rerouteNo="0" devices="tripinfo_flow03.10" vType="CarA" speedFactor="1.02" vaporized=""/>
    <tripinfo id="flow03.11" depart="112.00" departLane="n_t_0" departPos="5.10" departSpeed="0.00" departDelay="3.67" arrival="143.00" arrivalLane="t_e_0" arrivalPos="136.25" arrivalSpeed="14.63" duration="31.00" routeLength="279.21" waitingTime="0.00" waitingCount="0" stopTime="0.00" timeLoss="11.88" rerouteNo="0" devices="tripinfo_flow03.11" vType="CarA" speedFactor="1.10" vaporized=""/>
    <tripinfo id="flow03.12" depart="117.00" departLane="n_t_0" departPos="5.10" departSpeed="0.00" departDelay="0.58" arrival="145.00" arrivalLane="t_e_0" arrivalPos="136.25" arrivalSpeed="15.16" duration="28.00" routeLength="279.21" waitingTime="0.00" waitingCount="0" stopTime="0.00" timeLoss="10.14" rerouteNo="0" devices="tripinfo_flow03.12" vType="CarA" speedFactor="1.23" vaporized=""/>
    <tripinfo id="flow01.10" depart="120.00" departLane="n_t_0" departPos="5.10" departSpeed="0.00" departDelay="2.99" arrival="147.00" arrivalLane="t_s_0" arrivalPos="136.25" arrivalSpeed="12.08" duration="27.00" routeLength="294.90" waitingTime="0.00" waitingCount="0" stopTime="0.00" timeLoss="3.73" rerouteNo="0" devices="tripinfo_flow01.10" vType="CarA" speedFactor="0.93" vaporized=""/>
    <tripinfo id="flow02.7" depart="129.00" departLane="n_t_0" departPos="5.10" departSpeed="0.00" departDelay="0.88" arrival="155.00" arrivalLane="t_w_0" arrivalPos="136.25" arrivalSpeed="12.63" duration="26.00" routeLength="293.40" waitingTime="0.00" waitingCount="0" stopTime="0.00" timeLoss="3.83" rerouteNo="0" devices="tripinfo_flow02.7" vType="CarA" speedFactor="0.99" vaporized=""/>
    <tripinfo id="flow01.11" depart="139.00" departLane="n_t_0" departPos="5.10" departSpeed="0.00" departDelay="0.48" arrival="166.00" arrivalLane="t_s_0" arrivalPos="136.25" arrivalSpeed="11.84" duration="27.00" routeLength="294.90" waitingTime="0.00" waitingCount="0" stopTime="0.00" timeLoss="4.20" rerouteNo="0" devices="tripinfo_flow01.11" vType="CarA" speedFactor="0.94" vaporized=""/>
    <tripinfo id="flow01.12" depart="142.00" departLane="n_t_0" departPos="5.10" departSpeed="0.00" departDelay="2.47" arrival="168.00" arrivalLane="t_s_0" arrivalPos="136.25" arrivalSpeed="13.36" duration="26.00" routeLength="294.90" waitingTime="0.00" waitingCount="0" stopTime="0.00" timeLoss="5.03" rerouteNo="0" devices="tripinfo_flow01.12" vType="CarA" speedFactor="1.04" vaporized=""/>
    <tripinfo id="flow01.13" depart="148.00" departLane="n_t_0" departPos="5.10" departSpeed="0.00" departDelay="1.12" arrival="172.00" arrivalLane="t_s_0" arrivalPos="136.25" arrivalSpeed="13.56" duration="24.00" routeLength="294.90" waitingTime="0.00" waitingCount="0" stopTime="0.00" timeLoss="3.45" rerouteNo="0" devices="tripinfo_flow01.13" vType="CarA" speedFactor="1.04" vaporized=""/>
    <tripinfo id="flow03.13" depart="145.00" departLane="n_t_0" departPos="5.10" departSpeed="0.00" departDelay="0.52" arrival="173.00" arrivalLane="t_e_0" arrivalPos="136.25" arrivalSpeed="12.57" duration="28.00" routeLength="279.21" waitingTime="0.00" waitingCount="0" stopTime="0.00" timeLoss="5.14" rerouteNo="0" devices="tripinfo_flow03.13" vType="CarA" speedFactor="0.94" vaporized=""/>
    <tripinfo id="flow01.14" depart="150.00" departLane="n_t_0" departPos="5.10" departSpeed="0.00" departDelay="1.39" arrival="177.00" arrivalLane="t_s_0" arrivalPos="136.25" arrivalSpeed="12.58" duration="27.00" routeLength="294.90" waitingTime="0.00" waitingCount="0" stopTime="0.00" timeLoss="4.82" rerouteNo="0" devices="tripinfo_flow01.14" vType="CarA" speedFactor="0.98" vaporized=""/>
    <tripinfo id="flow01.15" depart="153.00" departLane="n_t_0" departPos="5.10" departSpeed="0.00" departDelay="2.46" arrival="180.00" arrivalLane="t_s_0" arrivalPos="136.25" arrivalSpeed="12.94" duration="27.00" routeLength="294.90" waitingTime="0.00" waitingCount="0" stopTime="0.00" timeLoss="4.22" rerouteNo="0" devices="tripinfo_flow01.15" vType="CarA" speedFactor="0.93" vaporized=""/>
    <tripinfo id="flow01.16" depart="156.00" departLane="n_t_0" departPos="5.10" departSpeed="0.00" departDelay="4.35" arrival="182.00" arrivalLane="t_s_0" arrivalPos="136.25" arrivalSpeed="13.42" duration="26.00" routeLength="294.90" waitingTime="0.00" waitingCount="0" stopTime="0.00" timeLoss="4.02" rerouteNo="0" devices="tripinfo_flow01.16" vType="CarA" speedFactor="0.98" vaporized=""/>
    <tripinfo id="flow02.8" depart="166.00" departLane="n_t_0" departPos="5.10" departSpeed="0.00" departDelay="0.08" arrival="196.00" arrivalLane="t_w_0" arrivalPos="136.25" arrivalSpeed="12.06" duration="30.00" routeLength="293.40" waitingTime="0.00" waitingCount="0" stopTime="0.00" timeLoss="4.72" rerouteNo="0" devices="tripinfo_flow02.8" vType="CarA" speedFactor="0.89" vaporized=""/>
    <tripinfo id="flow03.14" depart="173.00" departLane="n_t_0" departPos="5.10" departSpeed="0.00" departDelay="0.04" arrival="198.00" arrivalLane="t_e_0" arrivalPos="136.25" arrivalSpeed="14.60" duration="25.00" routeLength="279.21" waitingTime="0.00" waitingCount="0" stopTime="0.00" timeLoss="5.28" rerouteNo="0" devices="tripinfo_flow03.14" vType="CarA" speedFactor="1.09" vaporized=""/>
    <tripinfo id="flow02.9" depart="171.00" departLane="n_t_0" departPos="5.10" departSpeed="0.00" departDelay="0.86" arrival="199.00" arrivalLane="t_w_0" arrivalPos="136.25" arrivalSpeed="12.25" duration="28.00" routeLength="293.40" waitingTime="0.00" waitingCount="0" stopTime="0.00" timeLoss="4.66" rerouteNo="0" devices="tripinfo_flow02.9" vType="CarA" speedFactor="0.96" vaporized=""/>
    <tripinfo id="flow03.15" depart="176.00" departLane="n_t_0" departPos="5.10" departSpeed="0.00" departDelay="1.36" arrival="204.00" arrivalLane="t_e_0" arrivalPos="136.25" arrivalSpeed="12.35" duration="28.00" routeLength="279.21" waitingTime="0.00" waitingCount="0" stopTime="0.00" timeLoss="5.30" rerouteNo="0" devices="tripinfo_flow03.15" vType="CarA" speedFactor="0.95" vaporized=""/>
    <tripinfo id="flow02.10" depart="183.00" departLane="n_t_0" departPos="5.10" departSpeed="0.00" departDelay="0.47" arrival="210.00" arrivalLane="t_w_0" arrivalPos="136.25" arrivalSpeed="12.64" duration="27.00" routeLength="293.40" waitingTime="0.00" waitingCount="0" stopTime="0.00" timeLoss="4.32" rerouteNo="0" devices="tripinfo_flow02.10" vType="CarA" speedFactor="0.99" vaporized=""/>
    <tripinfo id="flow03.16" depart="185.00" departLane="n_t_0" departPos="5.10" departSpeed="0.00" departDelay="0.10" arrival="213.00" arrivalLane="t_e_0" arrivalPos="136.25" arrivalSpeed="12.09" duration="28.00" routeLength="279.21" waitingTime="0.00" waitingCount="0" stopTime="0.00" timeLoss="5.92" rerouteNo="0" devices="tripinfo_flow03.16" vType="CarA" speedFactor="0.96" vaporized=""/>
    <tripinfo id="flow03.17" depart="188.00" departLane="n_t_0" departPos="5.10" departSpeed="0.00" departDelay="2.59" arrival="215.00" arrivalLane="t_e_0" arrivalPos="136.25" arrivalSpeed="13.98" duration="27.00" routeLength="279.21" waitingTime="0.00" waitingCount="0" stopTime="0.00" timeLoss="5.98" rerouteNo="0" devices="tripinfo_flow03.17" vType="CarA" speedFactor="1.03" vaporized=""/>
    <tripinfo id="flow03.18" depart="191.00" departLane="n_t_0" departPos="5.10" departSpeed="0.00" departDelay="4.94" arrival="217.00" arrivalLane="t_e_0" arrivalPos="136.25" arrivalSpeed="14.51" duration="26.00" routeLength="279.21" waitingTime="0.00" waitingCount="0" stopTime="0.00" timeLoss="5.95" rerouteNo="0" devices="tripinfo_flow03.18" vType="CarA" speedFactor="1.08" vaporized=""/>
    <tripinfo id="flow02.11" depart="194.00" departLane="n_t_0" departPos="5.10" departSpeed="0.00" departDelay="2.63" arrival="220.00" arrivalLane="t_w_0" arrivalPos="136.25" arrivalSpeed="13.70" duration="26.00" routeLength="293.40" waitingTime="0.00" waitingCount="0" stopTime="0.00" timeLoss="4.16" rerouteNo="0" devices="tripinfo_flow02.11" vType="CarA" speedFactor="1.01" vaporized=""/>
    <tripinfo id="flow01.17" depart="196.00" departLane="n_t_0" departPos="5.10" departSpeed="0.00" departDelay="0.55" arrival="223.00" arrivalLane="t_s_0" arrivalPos="136.25" arrivalSpeed="13.00" duration="27.00" routeLength="294.90" waitingTime="0.00" waitingCount="0" stopTime="0.00" timeLoss="4.13" rerouteNo="0" devices="tripinfo_flow01.17" vType="CarA" speedFactor="0.96" vaporized=""/>
    <tripinfo id="flow03.19" depart="199.00" departLane="n_t_0" departPos="5.10" departSpeed="0.00" departDelay="3.90" arrival="225.00" arrivalLane="t_e_0" arrivalPos="136.25" arrivalSpeed="13.79" duration="26.00" routeLength="279.21" waitingTime="0.00" waitingCount="0" stopTime="0.00" timeLoss="5.51" rerouteNo="0" devices="tripinfo_flow03.19" vType="CarA" speedFactor="1.03" vaporized=""/>
    <tripinfo id="flow01.18" depart="202.00" departLane="n_t_0" departPos="5.10" departSpeed="0.00" departDelay="2.11" arrival="228.00" arrivalLane="t_s_0" arrivalPos="136.25" arrivalSpeed="13.15" duration="26.00" routeLength="294.90" waitingTime="0.00" waitingCount="0" stopTime="0.00" timeLoss="3.68" rerouteNo="0" devices="tripinfo_flow01.18" vType="CarA" speedFactor="0.98" vaporized=""/>
    <tripinfo id="flow03.20" depart="205.00" departLane="n_t_0" departPos="5.10" departSpeed="0.00" departDelay="3.25" arrival="229.00" arrivalLane="t_e_0" arrivalPos="136.25" arrivalSpeed="15.64" duration="24.00" routeLength="279.21" waitingTime="0.00" waitingCount="0" stopTime="0.00" timeLoss="5.75" rerouteNo="0" devices="tripinfo_flow03.20" vType="CarA" speedFactor="1.17" vaporized=""/>
    <tripinfo id="flow01.19" depart="208.00" departLane="n_t_0" departPos="5.10" departSpeed="0.00" departDelay="4.58" arrival="232.00" arrivalLane="t_s_0" arrivalPos="136.25" arrivalSpeed="14.95" duration="24.00" routeLength="294.90" waitingTime="0.00" waitingCount="0" stopTime="0.00" timeLoss="4.82" rerouteNo="0" devices="tripinfo_flow01.19" vType="CarA" speedFactor="1.12" vaporized=""/>
    <tripinfo id="flow01.20" depart="213.00" departLane="n_t_0" departPos="5.10" departSpeed="0.00" departDelay="0.68" arrival="243.00" arrivalLane="t_s_0" arrivalPos="136.25" arrivalSpeed="11.42" duration="30.00" routeLength="294.90" waitingTime="0.00" waitingCount="0" stopTime="0.00" timeLoss="3.67" rerouteNo="0" devices="tripinfo_flow01.20" vType="CarA" speedFactor="0.83" vaporized=""/>
    <tripinfo id="flow01.21" depart="216.00" departLane="n_t_0" departPos="5.10" departSpeed="0.00" departDelay="1.66" arrival="245.00" arrivalLane="t_s_0" arrivalPos="136.25" arrivalSpeed="14.98" duration="29.00" routeLength="294.90" waitingTime="0.00" waitingCount="0" stopTime="0.00" timeLoss="10.01" rerouteNo="0" devices="tripinfo_flow01.21" vType="CarA" speedFactor="1.17" vaporized=""/>
    <tripinfo id="flow01.22" depart="218.00" departLane="n_t_0" departPos="5.10" departSpeed="0.00" departDelay="1.08" arrival="246.00" arrivalLane="t_s_0" arrivalPos="136.25" arrivalSpeed="15.34" duration="28.00" routeLength="294.90" waitingTime="0.00" waitingCount="0" stopTime="0.00" timeLoss="9.17" rerouteNo="0" devices="tripinfo_flow01.22" vType="CarA" speedFactor="1.15" vaporized=""/>
    <tripinfo id="flow01.23" depart="220.00" departLane="n_t_0" departPos="5.10" departSpeed="0.00" departDelay="2.73" arrival="248.00" arrivalLane="t_s_0" arrivalPos="136.25" arrivalSpeed="12.74" duration="28.00" routeLength="294.90" waitingTime="0.00" waitingCount="0" stopTime="0.00" timeLoss="5.47" rerouteNo="0" devices="tripinfo_flow01.23" vType="CarA" speedFactor="0.96" vaporized=""/>