<?xml version="1.0" encoding="UTF-8"?>

<!-- generated on 2024-07-07 16:50:55 by Eclipse SUMO libsumo Version 1.20.0
<configuration xmlns:xsi="http://www.w3.org/2001/XMLSchema-instance" xsi:noNamespaceSchemaLocation="http://sumo.dlr.de/xsd/libsumoConfiguration.xsd">

    <input>
        <net-file value="sumo_rl/nets/2way-single-intersection/single-intersection-4.net.xml"/>
        <route-files value="/root/autodl-tmp/outputs/2024-07-07/16-49-54-1684/output.rou.xml"/>
    </input>

    <output>
        <tripinfo-output value="/root/autodl-tmp/outputs/2024-07-07/16-49-54-1684/tripinfos-10.xml"/>
    </output>

    <processing>
        <time-to-teleport value="-1"/>
        <waiting-time-memory value="1000"/>
        <max-depart-delay value="-1"/>
    </processing>

    <random_number>
        <seed value="34"/>
    </random_number>

</configuration>
-->

<tripinfos xmlns:xsi="http://www.w3.org/2001/XMLSchema-instance" xsi:noNamespaceSchemaLocation="http://sumo.dlr.de/xsd/tripinfo_file.xsd">
</tripinfos>
