<?xml version="1.0" encoding="UTF-8"?>

<!-- generated on 2024-07-07 16:49:54 by Eclipse SUMO libsumo Version 1.20.0
<configuration xmlns:xsi="http://www.w3.org/2001/XMLSchema-instance" xsi:noNamespaceSchemaLocation="http://sumo.dlr.de/xsd/libsumoConfiguration.xsd">

    <input>
        <net-file value="sumo_rl/nets/2way-single-intersection/single-intersection-4.net.xml"/>
        <route-files value="/root/autodl-tmp/outputs/2024-07-07/16-49-54-1684/output.rou.xml"/>
    </input>

    <output>
        <tripinfo-output value="/root/autodl-tmp/outputs/2024-07-07/16-49-54-1684/tripinfos-1.xml"/>
    </output>

    <processing>
        <time-to-teleport value="-1"/>
        <waiting-time-memory value="1000"/>
        <max-depart-delay value="-1"/>
    </processing>

    <random_number>
        <seed value="25"/>
    </random_number>

</configuration>
-->

<tripinfos xmlns:xsi="http://www.w3.org/2001/XMLSchema-instance" xsi:noNamespaceSchemaLocation="http://sumo.dlr.de/xsd/tripinfo_file.xsd">
    <tripinfo id="flow01.0" depart="2.00" departLane="n_t_0" departPos="5.10" departSpeed="0.00" departDelay="0.52" arrival="34.00" arrivalLane="t_s_0" arrivalPos="136.25" arrivalSpeed="13.65" duration="32.00" routeLength="294.90" waitingTime="3.00" waitingCount="1" stopTime="0.00" timeLoss="11.91" rerouteNo="0" devices="tripinfo_flow01.0" vType="CarA" speedFactor="1.07" vaporized=""/>
    <tripinfo id="flow01.1" depart="6.00" departLane="n_t_0" departPos="5.10" departSpeed="0.00" departDelay="0.50" arrival="36.00" arrivalLane="t_s_0" arrivalPos="136.25" arrivalSpeed="16.30" duration="30.00" routeLength="294.90" waitingTime="0.00" waitingCount="0" stopTime="0.00" timeLoss="11.39" rerouteNo="0" devices="tripinfo_flow01.1" vType="CarA" speedFactor="1.19" vaporized=""/>
    <tripinfo id="flow02.0" depart="9.00" departLane="n_t_0" departPos="5.10" departSpeed="0.00" departDelay="3.34" arrival="36.00" arrivalLane="t_w_0" arrivalPos="136.25" arrivalSpeed="12.80" duration="27.00" routeLength="293.40" waitingTime="0.00" waitingCount="0" stopTime="0.00" timeLoss="4.49" rerouteNo="0" devices="tripinfo_flow02.0" vType="CarA" speedFactor="0.97" vaporized=""/>
    <tripinfo id="flow03.0" depart="11.00" departLane="n_t_0" departPos="5.10" departSpeed="0.00" departDelay="2.55" arrival="38.00" arrivalLane="t_e_0" arrivalPos="136.25" arrivalSpeed="11.95" duration="27.00" routeLength="279.21" waitingTime="0.00" waitingCount="0" stopTime="0.00" timeLoss="4.76" rerouteNo="0" devices="tripinfo_flow03.0" vType="CarA" speedFactor="0.95" vaporized=""/>
    <tripinfo id="flow04.0" depart="9.00" departLane="s_t_0" departPos="5.10" departSpeed="0.00" departDelay="0.10" arrival="44.00" arrivalLane="t_n_0" arrivalPos="136.25" arrivalSpeed="12.66" duration="35.00" routeLength="294.90" waitingTime="3.00" waitingCount="1" stopTime="0.00" timeLoss="12.71" rerouteNo="0" devices="tripinfo_flow04.0" vType="CarA" speedFactor="0.97" vaporized=""/>
    <tripinfo id="flow04.1" depart="16.00" departLane="s_t_0" departPos="5.10" departSpeed="0.00" departDelay="0.86" arrival="46.00" arrivalLane="t_n_0" arrivalPos="136.25" arrivalSpeed="12.76" duration="30.00" routeLength="294.90" waitingTime="0.00" waitingCount="0" stopTime="0.00" timeLoss="7.81" rerouteNo="0" devices="tripinfo_flow04.1" vType="CarA" speedFactor="0.98" vaporized=""/>
    <tripinfo id="flow05.0" depart="22.00" departLane="s_t_0" departPos="5.10" departSpeed="0.00" departDelay="2.05" arrival="47.00" arrivalLane="t_w_0" arrivalPos="136.25" arrivalSpeed="15.92" duration="25.00" routeLength="279.21" waitingTime="0.00" waitingCount="0" stopTime="0.00" timeLoss="6.69" rerouteNo="0" devices="tripinfo_flow05.0" vType="CarA" speedFactor="1.16" vaporized=""/>
    <tripinfo id="flow04.2" depart="19.00" departLane="s_t_0" departPos="5.10" departSpeed="0.00" departDelay="0.96" arrival="48.00" arrivalLane="t_n_0" arrivalPos="136.25" arrivalSpeed="13.29" duration="29.00" routeLength="294.90" waitingTime="0.00" waitingCount="0" stopTime="0.00" timeLoss="6.71" rerouteNo="0" devices="tripinfo_flow04.2" vType="CarA" speedFactor="0.99" vaporized=""/>
    <tripinfo id="flow06.0" depart="37.00" departLane="s_t_0" departPos="5.10" departSpeed="0.00" departDelay="0.84" arrival="62.00" arrivalLane="t_e_0" arrivalPos="136.25" arrivalSpeed="13.88" duration="25.00" routeLength="293.40" waitingTime="0.00" waitingCount="0" stopTime="0.00" timeLoss="4.00" rerouteNo="0" devices="tripinfo_flow06.0" vType="CarA" speedFactor="1.03" vaporized=""/>
    <tripinfo id="flow05.1" depart="33.00" departLane="s_t_0" departPos="5.10" departSpeed="0.00" departDelay="0.47" arrival="66.00" arrivalLane="t_w_0" arrivalPos="136.25" arrivalSpeed="10.40" duration="33.00" routeLength="279.21" waitingTime="0.00" waitingCount="0" stopTime="0.00" timeLoss="5.09" rerouteNo="0" devices="tripinfo_flow05.1" vType="CarA" speedFactor="0.76" vaporized=""/>
    <tripinfo id="flow04.3" depart="42.00" departLane="s_t_0" departPos="5.10" departSpeed="0.00" departDelay="0.77" arrival="67.00" arrivalLane="t_n_0" arrivalPos="136.25" arrivalSpeed="13.69" duration="25.00" routeLength="294.90" waitingTime="0.00" waitingCount="0" stopTime="0.00" timeLoss="3.90" rerouteNo="0" devices="tripinfo_flow04.3" vType="CarA" speedFactor="1.05" vaporized=""/>
    <tripinfo id="flow09.0" depart="14.00" departLane="w_t_0" departPos="5.10" departSpeed="0.00" departDelay="0.11" arrival="73.00" arrivalLane="t_n_0" arrivalPos="136.25" arrivalSpeed="14.89" duration="59.00" routeLength="279.21" waitingTime="30.00" waitingCount="1" stopTime="0.00" timeLoss="40.52" rerouteNo="0" devices="tripinfo_flow09.0" vType="CarA" speedFactor="1.15" vaporized=""/>
    <tripinfo id="flow08.0" depart="27.00" departLane="w_t_0" departPos="5.10" departSpeed="0.00" departDelay="0.28" arrival="74.00" arrivalLane="t_s_0" arrivalPos="136.25" arrivalSpeed="14.86" duration="47.00" routeLength="293.40" waitingTime="17.00" waitingCount="1" stopTime="0.00" timeLoss="26.97" rerouteNo="0" devices="tripinfo_flow08.0" vType="CarA" speedFactor="1.11" vaporized=""/>
    <tripinfo id="flow07.0" depart="18.00" departLane="w_t_0" departPos="5.10" departSpeed="0.00" departDelay="0.10" arrival="75.00" arrivalLane="t_e_0" arrivalPos="136.25" arrivalSpeed="14.12" duration="57.00" routeLength="294.90" waitingTime="26.00" waitingCount="1" stopTime="0.00" timeLoss="36.12" rerouteNo="0" devices="tripinfo_flow07.0" vType="CarA" speedFactor="1.04" vaporized=""/>
    <tripinfo id="flow09.1" depart="31.00" departLane="w_t_0" departPos="5.10" departSpeed="0.00" departDelay="1.45" arrival="76.00" arrivalLane="t_n_0" arrivalPos="136.25" arrivalSpeed="12.89" duration="45.00" routeLength="279.21" waitingTime="15.00" waitingCount="1" stopTime="0.00" timeLoss="23.61" rerouteNo="0" devices="tripinfo_flow09.1" vType="CarA" speedFactor="0.99" vaporized=""/>
    <tripinfo id="flow07.1" depart="28.00" departLane="w_t_0" departPos="5.10" departSpeed="0.00" departDelay="0.42" arrival="77.00" arrivalLane="t_e_0" arrivalPos="136.25" arrivalSpeed="14.20" duration="49.00" routeLength="294.90" waitingTime="18.00" waitingCount="1" stopTime="0.00" timeLoss="28.49" rerouteNo="0" devices="tripinfo_flow07.1" vType="CarA" speedFactor="1.07" vaporized=""/>
    <tripinfo id="flow11.0" depart="36.00" departLane="e_t_0" departPos="5.10" departSpeed="0.00" departDelay="2.53" arrival="82.00" arrivalLane="t_s_0" arrivalPos="136.25" arrivalSpeed="14.15" duration="46.00" routeLength="279.21" waitingTime="18.00" waitingCount="1" stopTime="0.00" timeLoss="26.31" rerouteNo="0" devices="tripinfo_flow11.0" vType="CarA" speedFactor="1.06" vaporized=""/>
    <tripinfo id="flow12.0" depart="24.00" departLane="e_t_0" departPos="5.10" departSpeed="0.00" departDelay="2.90" arrival="83.00" arrivalLane="t_n_0" arrivalPos="136.25" arrivalSpeed="14.11" duration="59.00" routeLength="293.40" waitingTime="29.00" waitingCount="1" stopTime="0.00" timeLoss="37.73" rerouteNo="0" devices="tripinfo_flow12.0" vType="CarA" speedFactor="1.03" vaporized=""/>
    <tripinfo id="flow11.1" depart="52.00" departLane="e_t_0" departPos="5.10" departSpeed="0.00" departDelay="0.01" arrival="84.00" arrivalLane="t_s_0" arrivalPos="136.25" arrivalSpeed="14.68" duration="32.00" routeLength="279.21" waitingTime="2.00" waitingCount="1" stopTime="0.00" timeLoss="13.50" rerouteNo="0" devices="tripinfo_flow11.1" vType="CarA" speedFactor="1.15" vaporized=""/>
    <tripinfo id="flow10.0" depart="21.00" departLane="e_t_0" departPos="5.10" departSpeed="0.00" departDelay="0.86" arrival="86.00" arrivalLane="t_w_0" arrivalPos="136.25" arrivalSpeed="11.73" duration="65.00" routeLength="294.90" waitingTime="31.00" waitingCount="1" stopTime="0.00" timeLoss="40.25" rerouteNo="0" devices="tripinfo_flow10.0" vType="CarA" speedFactor="0.89" vaporized=""/>
    <tripinfo id="flow12.1" depart="30.00" departLane="e_t_0" departPos="5.10" departSpeed="0.00" departDelay="0.54" arrival="86.00" arrivalLane="t_n_0" arrivalPos="136.25" arrivalSpeed="13.57" duration="56.00" routeLength="293.40" waitingTime="26.00" waitingCount="1" stopTime="0.00" timeLoss="33.89" rerouteNo="0" devices="tripinfo_flow12.1" vType="CarA" speedFactor="1.00" vaporized=""/>
    <tripinfo id="flow10.1" depart="27.00" departLane="e_t_0" departPos="5.10" departSpeed="0.00" departDelay="0.15" arrival="87.00" arrivalLane="t_w_0" arrivalPos="136.25" arrivalSpeed="13.00" duration="60.00" routeLength="294.90" waitingTime="27.00" waitingCount="1" stopTime="0.00" timeLoss="38.07" rerouteNo="0" devices="tripinfo_flow10.1" vType="CarA" speedFactor="0.98" vaporized=""/>
    <tripinfo id="flow04.4" depart="52.00" departLane="s_t_0" departPos="5.10" departSpeed="0.00" departDelay="2.91" arrival="93.00" arrivalLane="t_n_0" arrivalPos="136.25" arrivalSpeed="13.07" duration="41.00" routeLength="294.90" waitingTime="10.00" waitingCount="1" stopTime="0.00" timeLoss="18.96" rerouteNo="0" devices="tripinfo_flow04.4" vType="CarA" speedFactor="0.98" vaporized=""/>
    <tripinfo id="flow06.1" depart="60.00" departLane="s_t_0" departPos="5.10" departSpeed="0.00" departDelay="0.98" arrival="93.00" arrivalLane="t_e_0" arrivalPos="136.25" arrivalSpeed="13.25" duration="33.00" routeLength="293.40" waitingTime="1.00" waitingCount="1" stopTime="0.00" timeLoss="10.31" rerouteNo="0" devices="tripinfo_flow06.1" vType="CarA" speedFactor="0.98" vaporized=""/>
    <tripinfo id="flow05.2" depart="49.00" departLane="s_t_0" departPos="5.10" departSpeed="0.00" departDelay="0.59" arrival="94.00" arrivalLane="t_w_0" arrivalPos="136.25" arrivalSpeed="10.73" duration="45.00" routeLength="279.21" waitingTime="11.00" waitingCount="1" stopTime="0.00" timeLoss="19.03" rerouteNo="0" devices="tripinfo_flow05.2" vType="CarA" speedFactor="0.80" vaporized=""/>
    <tripinfo id="flow04.5" depart="55.00" departLane="s_t_0" departPos="5.10" departSpeed="0.00" departDelay="2.41" arrival="96.00" arrivalLane="t_n_0" arrivalPos="136.25" arrivalSpeed="11.68" duration="41.00" routeLength="294.90" waitingTime="7.00" waitingCount="1" stopTime="0.00" timeLoss="17.19" rerouteNo="0" devices="tripinfo_flow04.5" vType="CarA" speedFactor="0.92" vaporized=""/>
    <tripinfo id="flow05.3" depart="68.00" departLane="s_t_0" departPos="5.10" departSpeed="0.00" departDelay="1.36" arrival="96.00" arrivalLane="t_w_0" arrivalPos="136.25" arrivalSpeed="12.09" duration="28.00" routeLength="279.21" waitingTime="0.00" waitingCount="0" stopTime="0.00" timeLoss="5.18" rerouteNo="0" devices="tripinfo_flow05.3" vType="CarA" speedFactor="0.92" vaporized=""/>
    <tripinfo id="flow01.2" depart="14.00" departLane="n_t_0" departPos="5.10" departSpeed="0.00" departDelay="3.43" arrival="102.00" arrivalLane="t_s_0" arrivalPos="136.25" arrivalSpeed="12.51" duration="88.00" routeLength="294.90" waitingTime="56.00" waitingCount="1" stopTime="0.00" timeLoss="65.18" rerouteNo="0" devices="tripinfo_flow01.2" vType="CarA" speedFactor="0.95" vaporized=""/>
    <tripinfo id="flow02.1" depart="19.00" departLane="n_t_0" departPos="5.10" departSpeed="0.00" departDelay="0.43" arrival="102.00" arrivalLane="t_w_0" arrivalPos="136.25" arrivalSpeed="12.64" duration="83.00" routeLength="293.40" waitingTime="51.00" waitingCount="1" stopTime="0.00" timeLoss="59.86" rerouteNo="0" devices="tripinfo_flow02.1" vType="CarA" speedFactor="0.93" vaporized=""/>
    <tripinfo id="flow03.1" depart="38.00" departLane="n_t_0" departPos="5.10" departSpeed="0.00" departDelay="2.33" arrival="102.00" arrivalLane="t_e_0" arrivalPos="136.25" arrivalSpeed="11.56" duration="64.00" routeLength="279.21" waitingTime="33.00" waitingCount="1" stopTime="0.00" timeLoss="40.02" rerouteNo="0" devices="tripinfo_flow03.1" vType="CarA" speedFactor="0.90" vaporized=""/>
    <tripinfo id="flow01.3" depart="25.00" departLane="n_t_0" departPos="5.10" departSpeed="0.00" departDelay="0.56" arrival="106.00" arrivalLane="t_s_0" arrivalPos="136.25" arrivalSpeed="11.34" duration="81.00" routeLength="294.90" waitingTime="47.00" waitingCount="1" stopTime="0.00" timeLoss="55.48" rerouteNo="0" devices="tripinfo_flow01.3" vType="CarA" speedFactor="0.86" vaporized=""/>
    <tripinfo id="flow02.2" depart="21.00" departLane="n_t_0" departPos="5.10" departSpeed="0.00" departDelay="1.57" arrival="108.00" arrivalLane="t_w_0" arrivalPos="136.25" arrivalSpeed="9.65" duration="87.00" routeLength="293.40" waitingTime="49.00" waitingCount="1" stopTime="0.00" timeLoss="57.76" rerouteNo="0" devices="tripinfo_flow02.2" vType="CarA" speedFactor="0.75" vaporized=""/>
    <tripinfo id="flow03.2" depart="41.00" departLane="n_t_0" departPos="5.10" departSpeed="0.00" departDelay="2.54" arrival="109.00" arrivalLane="t_e_0" arrivalPos="136.25" arrivalSpeed="8.61" duration="68.00" routeLength="279.21" waitingTime="28.00" waitingCount="1" stopTime="0.00" timeLoss="37.10" rerouteNo="0" devices="tripinfo_flow03.2" vType="CarA" speedFactor="0.69" vaporized=""/>
    <tripinfo id="flow12.2" depart="48.00" departLane="e_t_0" departPos="5.10" departSpeed="0.00" departDelay="1.03" arrival="110.00" arrivalLane="t_n_0" arrivalPos="136.25" arrivalSpeed="14.01" duration="62.00" routeLength="293.40" waitingTime="25.00" waitingCount="2" stopTime="0.00" timeLoss="40.49" rerouteNo="0" devices="tripinfo_flow12.2" vType="CarA" speedFactor="1.01" vaporized=""/>
    <tripinfo id="flow11.2" depart="63.00" departLane="e_t_0" departPos="5.10" departSpeed="0.00" departDelay="4.03" arrival="110.00" arrivalLane="t_s_0" arrivalPos="136.25" arrivalSpeed="14.43" duration="47.00" routeLength="279.21" waitingTime="17.00" waitingCount="1" stopTime="0.00" timeLoss="26.71" rerouteNo="0" devices="tripinfo_flow11.2" vType="CarA" speedFactor="1.05" vaporized=""/>
    <tripinfo id="flow10.2" depart="33.00" departLane="e_t_0" departPos="5.10" departSpeed="0.00" departDelay="0.85" arrival="111.00" arrivalLane="t_w_0" arrivalPos="136.25" arrivalSpeed="12.80" duration="78.00" routeLength="294.90" waitingTime="41.00" waitingCount="2" stopTime="0.00" timeLoss="56.73" rerouteNo="0" devices="tripinfo_flow10.2" vType="CarA" speedFactor="1.00" vaporized=""/>
    <tripinfo id="flow11.3" depart="72.00" departLane="e_t_0" departPos="5.10" departSpeed="0.00" departDelay="0.77" arrival="113.00" arrivalLane="t_s_0" arrivalPos="136.25" arrivalSpeed="11.72" duration="41.00" routeLength="279.21" waitingTime="9.00" waitingCount="1" stopTime="0.00" timeLoss="18.25" rerouteNo="0" devices="tripinfo_flow11.3" vType="CarA" speedFactor="0.92" vaporized=""/>
    <tripinfo id="flow10.3" depart="39.00" departLane="e_t_0" departPos="5.10" departSpeed="0.00" departDelay="3.05" arrival="114.00" arrivalLane="t_w_0" arrivalPos="136.25" arrivalSpeed="13.13" duration="75.00" routeLength="294.90" waitingTime="35.00" waitingCount="2" stopTime="0.00" timeLoss="51.76" rerouteNo="0" devices="tripinfo_flow10.3" vType="CarA" speedFactor="0.95" vaporized=""/>
    <tripinfo id="flow12.3" depart="58.00" departLane="e_t_0" departPos="5.10" departSpeed="0.00" departDelay="1.94" arrival="115.00" arrivalLane="t_n_0" arrivalPos="136.25" arrivalSpeed="10.97" duration="57.00" routeLength="293.40" waitingTime="17.00" waitingCount="1" stopTime="0.00" timeLoss="30.81" rerouteNo="0" devices="tripinfo_flow12.3" vType="CarA" speedFactor="0.85" vaporized=""/>
    <tripinfo id="flow05.4" depart="71.00" departLane="s_t_0" departPos="5.10" departSpeed="0.00" departDelay="2.66" arrival="118.00" arrivalLane="t_w_0" arrivalPos="136.25" arrivalSpeed="14.54" duration="47.00" routeLength="279.21" waitingTime="16.00" waitingCount="1" stopTime="0.00" timeLoss="27.54" rerouteNo="0" devices="tripinfo_flow05.4" vType="CarA" speedFactor="1.10" vaporized=""/>
    <tripinfo id="flow04.6" depart="62.00" departLane="s_t_0" departPos="5.10" departSpeed="0.00" departDelay="0.60" arrival="119.00" arrivalLane="t_n_0" arrivalPos="136.25" arrivalSpeed="14.68" duration="57.00" routeLength="294.90" waitingTime="22.00" waitingCount="2" stopTime="0.00" timeLoss="36.47" rerouteNo="0" devices="tripinfo_flow04.6" vType="CarA" speedFactor="1.07" vaporized=""/>
    <tripinfo id="flow06.2" depart="74.00" departLane="s_t_0" departPos="5.10" departSpeed="0.00" departDelay="4.22" arrival="120.00" arrivalLane="t_e_0" arrivalPos="136.25" arrivalSpeed="13.94" duration="46.00" routeLength="293.40" waitingTime="16.00" waitingCount="1" stopTime="0.00" timeLoss="25.20" rerouteNo="0" devices="tripinfo_flow06.2" vType="CarA" speedFactor="1.09" vaporized=""/>
    <tripinfo id="flow05.5" depart="80.00" departLane="s_t_0" departPos="5.10" departSpeed="0.00" departDelay="7.06" arrival="120.00" arrivalLane="t_w_0" arrivalPos="136.25" arrivalSpeed="14.04" duration="40.00" routeLength="279.21" waitingTime="11.00" waitingCount="1" stopTime="0.00" timeLoss="20.49" rerouteNo="0" devices="tripinfo_flow05.5" vType="CarA" speedFactor="1.09" vaporized=""/>
    <tripinfo id="flow04.7" depart="65.00" departLane="s_t_0" departPos="5.10" departSpeed="0.00" departDelay="0.10" arrival="121.00" arrivalLane="t_n_0" arrivalPos="136.25" arrivalSpeed="13.89" duration="56.00" routeLength="294.90" waitingTime="18.00" waitingCount="1" stopTime="0.00" timeLoss="35.16" rerouteNo="0" devices="tripinfo_flow04.7" vType="CarA" speedFactor="1.06" vaporized=""/>
    <tripinfo id="flow01.4" depart="35.00" departLane="n_t_0" departPos="5.10" departSpeed="0.00" departDelay="0.99" arrival="129.00" arrivalLane="t_s_0" arrivalPos="136.25" arrivalSpeed="12.34" duration="94.00" routeLength="294.90" waitingTime="58.00" waitingCount="2" stopTime="0.00" timeLoss="71.68" rerouteNo="0" devices="tripinfo_flow01.4" vType="CarA" speedFactor="0.96" vaporized=""/>
    <tripinfo id="flow03.3" depart="44.00" departLane="n_t_0" departPos="5.10" departSpeed="0.00" departDelay="4.63" arrival="129.00" arrivalLane="t_e_0" arrivalPos="136.25" arrivalSpeed="12.47" duration="85.00" routeLength="279.21" waitingTime="46.00" waitingCount="2" stopTime="0.00" timeLoss="61.86" rerouteNo="0" devices="tripinfo_flow03.3" vType="CarA" speedFactor="0.90" vaporized=""/>
    <tripinfo id="flow02.3" depart="84.00" departLane="n_t_0" departPos="5.10" departSpeed="0.00" departDelay="2.42" arrival="129.00" arrivalLane="t_w_0" arrivalPos="136.25" arrivalSpeed="12.85" duration="45.00" routeLength="293.40" waitingTime="13.00" waitingCount="1" stopTime="0.00" timeLoss="21.83" rerouteNo="0" devices="tripinfo_flow02.3" vType="CarA" speedFactor="0.94" vaporized=""/>
    <tripinfo id="flow01.5" depart="47.00" departLane="n_t_0" departPos="5.10" departSpeed="0.00" departDelay="2.31" arrival="131.00" arrivalLane="t_s_0" arrivalPos="136.25" arrivalSpeed="13.34" duration="84.00" routeLength="294.90" waitingTime="48.00" waitingCount="2" stopTime="0.00" timeLoss="62.83" rerouteNo="0" devices="tripinfo_flow01.5" vType="CarA" speedFactor="1.03" vaporized=""/>
    <tripinfo id="flow03.4" depart="55.00" departLane="n_t_0" departPos="5.10" departSpeed="0.00" departDelay="0.63" arrival="131.00" arrivalLane="t_e_0" arrivalPos="136.25" arrivalSpeed="13.00" duration="76.00" routeLength="279.21" waitingTime="39.00" waitingCount="2" stopTime="0.00" timeLoss="55.52" rerouteNo="0" devices="tripinfo_flow03.4" vType="CarA" speedFactor="1.03" vaporized=""/>
    <tripinfo id="flow01.6" depart="52.00" departLane="n_t_0" departPos="5.10" departSpeed="0.00" departDelay="0.23" arrival="133.00" arrivalLane="t_s_0" arrivalPos="136.25" arrivalSpeed="15.52" duration="81.00" routeLength="294.90" waitingTime="43.00" waitingCount="2" stopTime="0.00" timeLoss="61.04" rerouteNo="0" devices="tripinfo_flow01.6" vType="CarA" speedFactor="1.12" vaporized=""/>
    <tripinfo id="flow03.5" depart="77.00" departLane="n_t_0" departPos="5.10" departSpeed="0.00" departDelay="2.84" arrival="133.00" arrivalLane="t_e_0" arrivalPos="136.25" arrivalSpeed="13.98" duration="56.00" routeLength="279.21" waitingTime="19.00" waitingCount="2" stopTime="0.00" timeLoss="36.02" rerouteNo="0" devices="tripinfo_flow03.5" vType="CarA" speedFactor="1.07" vaporized=""/>
    <tripinfo id="flow02.4" depart="93.00" departLane="n_t_0" departPos="5.10" departSpeed="0.00" departDelay="0.97" arrival="133.00" arrivalLane="t_w_0" arrivalPos="136.25" arrivalSpeed="10.70" duration="40.00" routeLength="293.40" waitingTime="3.00" waitingCount="1" stopTime="0.00" timeLoss="13.52" rerouteNo="0" devices="tripinfo_flow02.4" vType="CarA" speedFactor="0.82" vaporized=""/>
    <tripinfo id="flow03.6" depart="85.00" departLane="n_t_0" departPos="5.10" departSpeed="0.00" departDelay="3.88" arrival="135.00" arrivalLane="t_e_0" arrivalPos="136.25" arrivalSpeed="12.61" duration="50.00" routeLength="279.21" waitingTime="16.00" waitingCount="1" stopTime="0.00" timeLoss="28.77" rerouteNo="0" devices="tripinfo_flow03.6" vType="CarA" speedFactor="0.99" vaporized=""/>
    <tripinfo id="flow01.7" depart="61.00" departLane="n_t_0" departPos="5.10" departSpeed="0.00" departDelay="0.03" arrival="137.00" arrivalLane="t_s_0" arrivalPos="136.25" arrivalSpeed="11.56" duration="76.00" routeLength="294.90" waitingTime="35.00" waitingCount="2" stopTime="0.00" timeLoss="51.06" rerouteNo="0" devices="tripinfo_flow01.7" vType="CarA" speedFactor="0.88" vaporized=""/>
    <tripinfo id="flow02.5" depart="111.00" departLane="n_t_0" departPos="5.10" departSpeed="0.00" departDelay="1.69" arrival="137.00" arrivalLane="t_w_0" arrivalPos="136.25" arrivalSpeed="14.48" duration="26.00" routeLength="293.40" waitingTime="0.00" waitingCount="0" stopTime="0.00" timeLoss="5.10" rerouteNo="0" devices="tripinfo_flow02.5" vType="CarA" speedFactor="1.06" vaporized=""/>
    <tripinfo id="flow01.8" depart="75.00" departLane="n_t_0" departPos="5.10" departSpeed="0.00" departDelay="0.85" arrival="138.00" arrivalLane="t_s_0" arrivalPos="136.25" arrivalSpeed="12.25" duration="63.00" routeLength="294.90" waitingTime="20.00" waitingCount="2" stopTime="0.00" timeLoss="40.07" rerouteNo="0" devices="tripinfo_flow01.8" vType="CarA" speedFactor="0.93" vaporized=""/>
    <tripinfo id="flow01.9" depart="82.00" departLane="n_t_0" departPos="5.10" departSpeed="0.00" departDelay="0.98" arrival="140.00" arrivalLane="t_s_0" arrivalPos="136.25" arrivalSpeed="13.30" duration="58.00" routeLength="294.90" waitingTime="16.00" waitingCount="2" stopTime="0.00" timeLoss="35.94" rerouteNo="0" devices="tripinfo_flow01.9" vType="CarA" speedFactor="0.98" vaporized=""/>
    <tripinfo id="flow01.10" depart="109.00" departLane="n_t_0" departPos="5.10" departSpeed="0.00" departDelay="0.11" arrival="142.00" arrivalLane="t_s_0" arrivalPos="136.25" arrivalSpeed="12.65" duration="33.00" routeLength="294.90" waitingTime="0.00" waitingCount="0" stopTime="0.00" timeLoss="9.50" rerouteNo="0" devices="tripinfo_flow01.10" vType="CarA" speedFactor="0.93" vaporized=""/>
    <tripinfo id="flow10.4" depart="44.00" departLane="e_t_0" departPos="5.10" departSpeed="0.00" departDelay="0.27" arrival="148.00" arrivalLane="t_w_0" arrivalPos="136.25" arrivalSpeed="12.83" duration="104.00" routeLength="294.90" waitingTime="61.00" waitingCount="3" stopTime="0.00" timeLoss="82.22" rerouteNo="0" devices="tripinfo_flow10.4" vType="CarA" speedFactor="1.01" vaporized=""/>
    <tripinfo id="flow11.4" depart="112.00" departLane="e_t_0" departPos="5.10" departSpeed="0.00" departDelay="0.73" arrival="148.00" arrivalLane="t_s_0" arrivalPos="136.25" arrivalSpeed="11.41" duration="36.00" routeLength="279.21" waitingTime="3.00" waitingCount="1" stopTime="0.00" timeLoss="12.47" rerouteNo="0" devices="tripinfo_flow11.4" vType="CarA" speedFactor="0.89" vaporized=""/>
    <tripinfo id="flow10.5" depart="46.00" departLane="e_t_0" departPos="5.10" departSpeed="0.00" departDelay="2.24" arrival="149.00" arrivalLane="t_w_0" arrivalPos="136.25" arrivalSpeed="15.10" duration="103.00" routeLength="294.90" waitingTime="57.00" waitingCount="3" stopTime="0.00" timeLoss="84.16" rerouteNo="0" devices="tripinfo_flow10.5" vType="CarA" speedFactor="1.14" vaporized=""/>
    <tripinfo id="flow12.4" depart="79.00" departLane="e_t_0" departPos="5.10" departSpeed="0.00" departDelay="0.02" arrival="150.00" arrivalLane="t_n_0" arrivalPos="136.25" arrivalSpeed="11.05" duration="71.00" routeLength="293.40" waitingTime="29.00" waitingCount="2" stopTime="0.00" timeLoss="45.95" rerouteNo="0" devices="tripinfo_flow12.4" vType="CarA" speedFactor="0.89" vaporized=""/>
    <tripinfo id="flow12.5" depart="82.00" departLane="e_t_0" departPos="5.10" departSpeed="0.00" departDelay="2.35" arrival="151.00" arrivalLane="t_n_0" arrivalPos="136.25" arrivalSpeed="14.78" duration="69.00" routeLength="293.40" waitingTime="28.00" waitingCount="1" stopTime="0.00" timeLoss="49.39" rerouteNo="0" devices="tripinfo_flow12.5" vType="CarA" speedFactor="1.11" vaporized=""/>
    <tripinfo id="flow03.7" depart="127.00" departLane="n_t_0" departPos="5.10" departSpeed="0.00" departDelay="0.00" arrival="155.00" arrivalLane="t_e_0" arrivalPos="136.25" arrivalSpeed="13.45" duration="28.00" routeLength="279.21" waitingTime="0.00" waitingCount="0" stopTime="0.00" timeLoss="6.93" rerouteNo="0" devices="tripinfo_flow03.7" vType="CarA" speedFactor="1.04" vaporized=""/>
    <tripinfo id="flow02.6" depart="125.00" departLane="n_t_0" departPos="5.10" departSpeed="0.00" departDelay="1.96" arrival="158.00" arrivalLane="t_w_0" arrivalPos="136.25" arrivalSpeed="12.14" duration="33.00" routeLength="293.40" waitingTime="0.00" waitingCount="0" stopTime="0.00" timeLoss="8.26" rerouteNo="0" devices="tripinfo_flow02.6" vType="CarA" speedFactor="0.91" vaporized=""/>
    <tripinfo id="flow03.8" depart="134.00" departLane="n_t_0" departPos="5.10" departSpeed="0.00" departDelay="0.29" arrival="158.00" arrivalLane="t_e_0" arrivalPos="136.25" arrivalSpeed="15.22" duration="24.00" routeLength="279.21" waitingTime="0.00" waitingCount="0" stopTime="0.00" timeLoss="4.98" rerouteNo="0" devices="tripinfo_flow03.8" vType="CarA" speedFactor="1.10" vaporized=""/>
    <tripinfo id="flow01.11" depart="113.00" departLane="n_t_0" departPos="5.10" departSpeed="0.00" departDelay="0.60" arrival="159.00" arrivalLane="t_s_0" arrivalPos="136.25" arrivalSpeed="11.45" duration="46.00" routeLength="294.90" waitingTime="8.00" waitingCount="1" stopTime="0.00" timeLoss="20.22" rerouteNo="0" devices="tripinfo_flow01.11" vType="CarA" speedFactor="0.85" vaporized=""/>
    <tripinfo id="flow01.12" depart="123.00" departLane="n_t_0" departPos="5.10" departSpeed="0.00" departDelay="0.76" arrival="161.00" arrivalLane="t_s_0" arrivalPos="136.25" arrivalSpeed="11.41" duration="38.00" routeLength="294.90" waitingTime="3.00" waitingCount="1" stopTime="0.00" timeLoss="11.65" rerouteNo="0" devices="tripinfo_flow01.12" vType="CarA" speedFactor="0.83" vaporized=""/>
    <tripinfo id="flow09.2" depart="41.00" departLane="w_t_0" departPos="5.10" departSpeed="0.00" departDelay="4.94" arrival="164.00" arrivalLane="t_n_0" arrivalPos="136.25" arrivalSpeed="15.43" duration="123.00" routeLength="279.21" waitingTime="87.00" waitingCount="2" stopTime="0.00" timeLoss="104.20" rerouteNo="0" devices="tripinfo_flow09.2" vType="CarA" speedFactor="1.16" vaporized=""/>
    <tripinfo id="flow08.1" depart="56.00" departLane="w_t_0" departPos="5.10" departSpeed="0.00" departDelay="0.84" arrival="164.00" arrivalLane="t_s_0" arrivalPos="136.25" arrivalSpeed="16.62" duration="108.00" routeLength="293.40" waitingTime="79.00" waitingCount="1" stopTime="0.00" timeLoss="89.67" rerouteNo="0" devices="tripinfo_flow08.1" vType="CarA" speedFactor="1.20" vaporized=""/>
    <tripinfo id="flow07.2" depart="35.00" departLane="w_t_0" departPos="5.10" departSpeed="0.00" departDelay="0.47" arrival="165.00" arrivalLane="t_e_0" arrivalPos="136.25" arrivalSpeed="15.86" duration="130.00" routeLength="294.90" waitingTime="96.00" waitingCount="2" stopTime="0.00" timeLoss="111.29" rerouteNo="0" devices="tripinfo_flow07.2" vType="CarA" speedFactor="1.18" vaporized=""/>
    <tripinfo id="flow07.3" depart="38.00" departLane="w_t_0" departPos="5.10" departSpeed="0.00" departDelay="2.44" arrival="168.00" arrivalLane="t_e_0" arrivalPos="136.25" arrivalSpeed="12.76" duration="130.00" routeLength="294.90" waitingTime="92.00" waitingCount="2" stopTime="0.00" timeLoss="107.78" rerouteNo="0" devices="tripinfo_flow07.3" vType="CarA" speedFactor="0.97" vaporized=""/>
    <tripinfo id="flow09.3" depart="47.00" departLane="w_t_0" departPos="5.10" departSpeed="0.00" departDelay="0.62" arrival="168.00" arrivalLane="t_n_0" arrivalPos="136.25" arrivalSpeed="11.61" duration="121.00" routeLength="279.21" waitingTime="84.00" waitingCount="2" stopTime="0.00" timeLoss="98.21" rerouteNo="0" devices="tripinfo_flow09.3" vType="CarA" speedFactor="0.92" vaporized=""/>
    <tripinfo id="flow08.2" depart="85.00" departLane="w_t_0" departPos="5.10" departSpeed="0.00" departDelay="0.14" arrival="168.00" arrivalLane="t_s_0" arrivalPos="136.25" arrivalSpeed="13.02" duration="83.00" routeLength="293.40" waitingTime="51.00" waitingCount="1" stopTime="0.00" timeLoss="60.72" rerouteNo="0" devices="tripinfo_flow08.2" vType="CarA" speedFactor="0.99" vaporized=""/>