<?xml version="1.0" encoding="UTF-8"?>

<!-- generated on 2024-07-07 16:50:34 by Eclipse SUMO libsumo Version 1.20.0
<configuration xmlns:xsi="http://www.w3.org/2001/XMLSchema-instance" xsi:noNamespaceSchemaLocation="http://sumo.dlr.de/xsd/libsumoConfiguration.xsd">

    <input>
        <net-file value="sumo_rl/nets/2way-single-intersection/single-intersection-4.net.xml"/>
        <route-files value="/root/autodl-tmp/outputs/2024-07-07/16-49-54-1684/output.rou.xml"/>
    </input>

    <output>
        <tripinfo-output value="/root/autodl-tmp/outputs/2024-07-07/16-49-54-1684/tripinfos-7.xml"/>
    </output>

    <processing>
        <time-to-teleport value="-1"/>
        <waiting-time-memory value="1000"/>
        <max-depart-delay value="-1"/>
    </processing>

    <random_number>
        <seed value="31"/>
    </random_number>

</configuration>
-->

<tripinfos xmlns:xsi="http://www.w3.org/2001/XMLSchema-instance" xsi:noNamespaceSchemaLocation="http://sumo.dlr.de/xsd/tripinfo_file.xsd">
    <tripinfo id="flow07.0" depart="1.00" departLane="w_t_0" departPos="5.10" departSpeed="0.00" departDelay="0.86" arrival="24.00" arrivalLane="t_e_0" arrivalPos="136.25" arrivalSpeed="15.31" duration="23.00" routeLength="294.90" waitingTime="0.00" waitingCount="0" stopTime="0.00" timeLoss="4.24" rerouteNo="0" devices="tripinfo_flow07.0" vType="CarA" speedFactor="1.14" vaporized=""/>
    <tripinfo id="flow05.0" depart="5.00" departLane="s_t_0" departPos="5.10" departSpeed="0.00" departDelay="0.92" arrival="37.00" arrivalLane="t_w_0" arrivalPos="136.25" arrivalSpeed="10.47" duration="32.00" routeLength="279.21" waitingTime="0.00" waitingCount="0" stopTime="0.00" timeLoss="5.63" rerouteNo="0" devices="tripinfo_flow05.0" vType="CarA" speedFactor="0.80" vaporized=""/>
    <tripinfo id="flow04.0" depart="13.00" departLane="s_t_0" departPos="5.10" departSpeed="0.00" departDelay="0.96" arrival="37.00" arrivalLane="t_n_0" arrivalPos="136.25" arrivalSpeed="14.09" duration="24.00" routeLength="294.90" waitingTime="0.00" waitingCount="0" stopTime="0.00" timeLoss="3.74" rerouteNo="0" devices="tripinfo_flow04.0" vType="CarA" speedFactor="1.07" vaporized=""/>
    <tripinfo id="flow06.0" depart="11.00" departLane="s_t_0" departPos="5.10" departSpeed="0.00" departDelay="3.31" arrival="38.00" arrivalLane="t_e_0" arrivalPos="136.25" arrivalSpeed="12.63" duration="27.00" routeLength="293.40" waitingTime="0.00" waitingCount="0" stopTime="0.00" timeLoss="4.33" rerouteNo="0" devices="tripinfo_flow06.0" vType="CarA" speedFactor="0.98" vaporized=""/>
    <tripinfo id="flow05.1" depart="8.00" departLane="s_t_0" departPos="5.10" departSpeed="0.00" departDelay="1.13" arrival="39.00" arrivalLane="t_w_0" arrivalPos="136.25" arrivalSpeed="14.83" duration="31.00" routeLength="279.21" waitingTime="0.00" waitingCount="0" stopTime="0.00" timeLoss="10.60" rerouteNo="0" devices="tripinfo_flow05.1" vType="CarA" speedFactor="1.08" vaporized=""/>
    <tripinfo id="flow05.2" depart="17.00" departLane="s_t_0" departPos="5.10" departSpeed="0.00" departDelay="0.61" arrival="43.00" arrivalLane="t_w_0" arrivalPos="136.25" arrivalSpeed="14.01" duration="26.00" routeLength="279.21" waitingTime="0.00" waitingCount="0" stopTime="0.00" timeLoss="5.35" rerouteNo="0" devices="tripinfo_flow05.2" vType="CarA" speedFactor="1.06" vaporized=""/>
    <tripinfo id="flow04.1" depart="23.00" departLane="s_t_0" departPos="5.10" departSpeed="0.00" departDelay="0.73" arrival="49.00" arrivalLane="t_n_0" arrivalPos="136.25" arrivalSpeed="13.38" duration="26.00" routeLength="294.90" waitingTime="0.00" waitingCount="0" stopTime="0.00" timeLoss="3.95" rerouteNo="0" devices="tripinfo_flow04.1" vType="CarA" speedFactor="0.99" vaporized=""/>
    <tripinfo id="flow05.3" depart="39.00" departLane="s_t_0" departPos="5.10" departSpeed="0.00" departDelay="0.61" arrival="68.00" arrivalLane="t_w_0" arrivalPos="136.25" arrivalSpeed="11.80" duration="29.00" routeLength="279.21" waitingTime="0.00" waitingCount="0" stopTime="0.00" timeLoss="5.81" rerouteNo="0" devices="tripinfo_flow05.3" vType="CarA" speedFactor="0.93" vaporized=""/>
    <tripinfo id="flow06.1" depart="46.00" departLane="s_t_0" departPos="5.10" departSpeed="0.00" departDelay="0.58" arrival="72.00" arrivalLane="t_e_0" arrivalPos="136.25" arrivalSpeed="12.86" duration="26.00" routeLength="293.40" waitingTime="0.00" waitingCount="0" stopTime="0.00" timeLoss="3.86" rerouteNo="0" devices="tripinfo_flow06.1" vType="CarA" speedFactor="0.99" vaporized=""/>
    <tripinfo id="flow05.4" depart="49.00" departLane="s_t_0" departPos="5.10" departSpeed="0.00" departDelay="0.37" arrival="74.00" arrivalLane="t_w_0" arrivalPos="136.25" arrivalSpeed="14.19" duration="25.00" routeLength="279.21" waitingTime="0.00" waitingCount="0" stopTime="0.00" timeLoss="5.90" rerouteNo="0" devices="tripinfo_flow05.4" vType="CarA" speedFactor="1.11" vaporized=""/>
    <tripinfo id="flow04.2" depart="56.00" departLane="s_t_0" departPos="5.10" departSpeed="0.00" departDelay="0.49" arrival="79.00" arrivalLane="t_n_0" arrivalPos="136.25" arrivalSpeed="16.10" duration="23.00" routeLength="294.90" waitingTime="0.00" waitingCount="0" stopTime="0.00" timeLoss="4.35" rerouteNo="0" devices="tripinfo_flow04.2" vType="CarA" speedFactor="1.18" vaporized=""/>
    <tripinfo id="flow05.5" depart="59.00" departLane="s_t_0" departPos="5.10" departSpeed="0.00" departDelay="2.86" arrival="87.00" arrivalLane="t_w_0" arrivalPos="136.25" arrivalSpeed="12.61" duration="28.00" routeLength="279.21" waitingTime="0.00" waitingCount="0" stopTime="0.00" timeLoss="5.02" rerouteNo="0" devices="tripinfo_flow05.5" vType="CarA" speedFactor="0.95" vaporized=""/>
    <tripinfo id="flow06.2" depart="67.00" departLane="s_t_0" departPos="5.10" departSpeed="0.00" departDelay="0.99" arrival="91.00" arrivalLane="t_e_0" arrivalPos="136.25" arrivalSpeed="15.52" duration="24.00" routeLength="293.40" waitingTime="0.00" waitingCount="0" stopTime="0.00" timeLoss="5.10" rerouteNo="0" devices="tripinfo_flow06.2" vType="CarA" speedFactor="1.20" vaporized=""/>
    <tripinfo id="flow04.3" depart="70.00" departLane="s_t_0" departPos="5.10" departSpeed="0.00" departDelay="0.54" arrival="94.00" arrivalLane="t_n_0" arrivalPos="136.25" arrivalSpeed="15.30" duration="24.00" routeLength="294.90" waitingTime="0.00" waitingCount="0" stopTime="0.00" timeLoss="4.09" rerouteNo="0" devices="tripinfo_flow04.3" vType="CarA" speedFactor="1.12" vaporized=""/>
    <tripinfo id="flow05.6" depart="73.00" departLane="s_t_0" departPos="5.10" departSpeed="0.00" departDelay="2.39" arrival="96.00" arrivalLane="t_w_0" arrivalPos="136.25" arrivalSpeed="16.49" duration="23.00" routeLength="279.21" waitingTime="0.00" waitingCount="0" stopTime="0.00" timeLoss="5.71" rerouteNo="0" devices="tripinfo_flow05.6" vType="CarA" speedFactor="1.20" vaporized=""/>
    <tripinfo id="flow03.0" depart="1.00" departLane="n_t_0" departPos="5.10" departSpeed="0.00" departDelay="0.33" arrival="107.00" arrivalLane="t_e_0" arrivalPos="136.25" arrivalSpeed="12.95" duration="106.00" routeLength="279.21" waitingTime="78.00" waitingCount="1" stopTime="0.00" timeLoss="85.71" rerouteNo="0" devices="tripinfo_flow03.0" vType="CarA" speedFactor="1.02" vaporized=""/>
    <tripinfo id="flow02.0" depart="58.00" departLane="n_t_0" departPos="5.10" departSpeed="0.00" departDelay="2.68" arrival="107.00" arrivalLane="t_w_0" arrivalPos="136.25" arrivalSpeed="16.08" duration="49.00" routeLength="293.40" waitingTime="21.00" waitingCount="1" stopTime="0.00" timeLoss="30.90" rerouteNo="0" devices="tripinfo_flow02.0" vType="CarA" speedFactor="1.22" vaporized=""/>
    <tripinfo id="flow02.1" depart="60.00" departLane="n_t_0" departPos="5.10" departSpeed="0.00" departDelay="0.99" arrival="109.00" arrivalLane="t_w_0" arrivalPos="136.25" arrivalSpeed="14.81" duration="49.00" routeLength="293.40" waitingTime="19.00" waitingCount="1" stopTime="0.00" timeLoss="30.19" rerouteNo="0" devices="tripinfo_flow02.1" vType="CarA" speedFactor="1.15" vaporized=""/>
    <tripinfo id="flow01.0" depart="14.00" departLane="n_t_0" departPos="5.10" departSpeed="0.00" departDelay="0.69" arrival="110.00" arrivalLane="t_s_0" arrivalPos="136.25" arrivalSpeed="11.45" duration="96.00" routeLength="294.90" waitingTime="62.00" waitingCount="1" stopTime="0.00" timeLoss="71.10" rerouteNo="0" devices="tripinfo_flow01.0" vType="CarA" speedFactor="0.86" vaporized=""/>
    <tripinfo id="flow03.1" depart="4.00" departLane="n_t_0" departPos="5.10" departSpeed="0.00" departDelay="1.83" arrival="111.00" arrivalLane="t_e_0" arrivalPos="136.25" arrivalSpeed="13.06" duration="107.00" routeLength="279.21" waitingTime="75.00" waitingCount="1" stopTime="0.00" timeLoss="84.44" rerouteNo="0" devices="tripinfo_flow03.1" vType="CarA" speedFactor="0.95" vaporized=""/>
    <tripinfo id="flow03.2" depart="7.00" departLane="n_t_0" departPos="5.10" departSpeed="0.00" departDelay="3.80" arrival="113.00" arrivalLane="t_e_0" arrivalPos="136.25" arrivalSpeed="12.77" duration="106.00" routeLength="279.21" waitingTime="74.00" waitingCount="1" stopTime="0.00" timeLoss="84.75" rerouteNo="0" devices="tripinfo_flow03.2" vType="CarA" speedFactor="1.01" vaporized=""/>
    <tripinfo id="flow01.1" depart="20.00" departLane="n_t_0" departPos="5.10" departSpeed="0.00" departDelay="0.70" arrival="113.00" arrivalLane="t_s_0" arrivalPos="136.25" arrivalSpeed="11.69" duration="93.00" routeLength="294.90" waitingTime="58.00" waitingCount="1" stopTime="0.00" timeLoss="67.23" rerouteNo="0" devices="tripinfo_flow01.1" vType="CarA" speedFactor="0.85" vaporized=""/>
    <tripinfo id="flow01.2" depart="41.00" departLane="n_t_0" departPos="5.10" departSpeed="0.00" departDelay="0.50" arrival="114.00" arrivalLane="t_s_0" arrivalPos="136.25" arrivalSpeed="12.92" duration="73.00" routeLength="294.90" waitingTime="41.00" waitingCount="1" stopTime="0.00" timeLoss="50.14" rerouteNo="0" devices="tripinfo_flow01.2" vType="CarA" speedFactor="0.93" vaporized=""/>
    <tripinfo id="flow03.3" depart="47.00" departLane="n_t_0" departPos="5.10" departSpeed="0.00" departDelay="3.40" arrival="115.00" arrivalLane="t_e_0" arrivalPos="136.25" arrivalSpeed="14.87" duration="68.00" routeLength="279.21" waitingTime="35.00" waitingCount="1" stopTime="0.00" timeLoss="48.70" rerouteNo="0" devices="tripinfo_flow03.3" vType="CarA" speedFactor="1.14" vaporized=""/>
    <tripinfo id="flow01.3" depart="44.00" departLane="n_t_0" departPos="5.10" departSpeed="0.00" departDelay="2.88" arrival="116.00" arrivalLane="t_s_0" arrivalPos="136.25" arrivalSpeed="14.46" duration="72.00" routeLength="294.90" waitingTime="38.00" waitingCount="1" stopTime="0.00" timeLoss="51.88" rerouteNo="0" devices="tripinfo_flow01.3" vType="CarA" speedFactor="1.07" vaporized=""/>
    <tripinfo id="flow02.2" depart="62.00" departLane="n_t_0" departPos="5.10" departSpeed="0.00" departDelay="2.58" arrival="117.00" arrivalLane="t_w_0" arrivalPos="136.25" arrivalSpeed="9.61" duration="55.00" routeLength="293.40" waitingTime="17.00" waitingCount="1" stopTime="0.00" timeLoss="26.61" rerouteNo="0" devices="tripinfo_flow02.2" vType="CarA" speedFactor="0.78" vaporized=""/>
    <tripinfo id="flow01.4" depart="55.00" departLane="n_t_0" departPos="5.10" departSpeed="0.00" departDelay="0.44" arrival="118.00" arrivalLane="t_s_0" arrivalPos="136.25" arrivalSpeed="11.66" duration="63.00" routeLength="294.90" waitingTime="28.00" waitingCount="1" stopTime="0.00" timeLoss="38.48" rerouteNo="0" devices="tripinfo_flow01.4" vType="CarA" speedFactor="0.87" vaporized=""/>
    <tripinfo id="flow02.3" depart="64.00" departLane="n_t_0" departPos="5.10" departSpeed="0.00" departDelay="3.06" arrival="119.00" arrivalLane="t_w_0" arrivalPos="136.25" arrivalSpeed="14.63" duration="55.00" routeLength="293.40" waitingTime="16.00" waitingCount="1" stopTime="0.00" timeLoss="34.58" rerouteNo="0" devices="tripinfo_flow02.3" vType="CarA" speedFactor="1.11" vaporized=""/>
    <tripinfo id="flow01.5" depart="71.00" departLane="n_t_0" departPos="5.10" departSpeed="0.00" departDelay="1.00" arrival="120.00" arrivalLane="t_s_0" arrivalPos="136.25" arrivalSpeed="13.20" duration="49.00" routeLength="294.90" waitingTime="14.00" waitingCount="1" stopTime="0.00" timeLoss="27.17" rerouteNo="0" devices="tripinfo_flow01.5" vType="CarA" speedFactor="0.99" vaporized=""/>
    <tripinfo id="flow02.4" depart="84.00" departLane="n_t_0" departPos="5.10" departSpeed="0.00" departDelay="0.91" arrival="120.00" arrivalLane="t_w_0" arrivalPos="136.25" arrivalSpeed="12.30" duration="36.00" routeLength="293.40" waitingTime="0.00" waitingCount="0" stopTime="0.00" timeLoss="12.70" rerouteNo="0" devices="tripinfo_flow02.4" vType="CarA" speedFactor="0.93" vaporized=""/>
    <tripinfo id="flow03.4" depart="94.00" departLane="n_t_0" departPos="5.10" departSpeed="0.00" departDelay="0.82" arrival="120.00" arrivalLane="t_e_0" arrivalPos="136.25" arrivalSpeed="14.07" duration="26.00" routeLength="279.21" waitingTime="0.00" waitingCount="0" stopTime="0.00" timeLoss="5.45" rerouteNo="0" devices="tripinfo_flow03.4" vType="CarA" speedFactor="1.02" vaporized=""/>
    <tripinfo id="flow01.6" depart="75.00" departLane="n_t_0" departPos="5.10" departSpeed="0.00" departDelay="0.82" arrival="122.00" arrivalLane="t_s_0" arrivalPos="136.25" arrivalSpeed="13.05" duration="47.00" routeLength="294.90" waitingTime="11.00" waitingCount="1" stopTime="0.00" timeLoss="25.25" rerouteNo="0" devices="tripinfo_flow01.6" vType="CarA" speedFactor="1.00" vaporized=""/>
    <tripinfo id="flow01.7" depart="77.00" departLane="n_t_0" departPos="5.10" departSpeed="0.00" departDelay="1.33" arrival="124.00" arrivalLane="t_s_0" arrivalPos="136.25" arrivalSpeed="12.81" duration="47.00" routeLength="294.90" waitingTime="10.00" waitingCount="1" stopTime="0.00" timeLoss="24.67" rerouteNo="0" devices="tripinfo_flow01.7" vType="CarA" speedFactor="0.98" vaporized=""/>
    <tripinfo id="flow01.8" depart="92.00" departLane="n_t_0" departPos="5.10" departSpeed="0.00" departDelay="0.88" arrival="128.00" arrivalLane="t_s_0" arrivalPos="136.25" arrivalSpeed="10.78" duration="36.00" routeLength="294.90" waitingTime="0.00" waitingCount="0" stopTime="0.00" timeLoss="9.22" rerouteNo="0" devices="tripinfo_flow01.8" vType="CarA" speedFactor="0.80" vaporized=""/>
    <tripinfo id="flow05.7" depart="81.00" departLane="s_t_0" departPos="5.10" departSpeed="0.00" departDelay="3.66" arrival="131.00" arrivalLane="t_w_0" arrivalPos="136.25" arrivalSpeed="13.93" duration="50.00" routeLength="279.21" waitingTime="19.00" waitingCount="1" stopTime="0.00" timeLoss="29.30" rerouteNo="0" devices="tripinfo_flow05.7" vType="CarA" speedFactor="1.04" vaporized=""/>
    <tripinfo id="flow06.3" depart="84.00" departLane="s_t_0" departPos="5.10" departSpeed="0.00" departDelay="3.03" arrival="132.00" arrivalLane="t_e_0" arrivalPos="136.25" arrivalSpeed="12.39" duration="48.00" routeLength="293.40" waitingTime="16.00" waitingCount="1" stopTime="0.00" timeLoss="25.39" rerouteNo="0" devices="tripinfo_flow06.3" vType="CarA" speedFactor="0.97" vaporized=""/>
    <tripinfo id="flow04.4" depart="78.00" departLane="s_t_0" departPos="5.10" departSpeed="0.00" departDelay="0.31" arrival="133.00" arrivalLane="t_n_0" arrivalPos="136.25" arrivalSpeed="11.54" duration="55.00" routeLength="294.90" waitingTime="22.00" waitingCount="1" stopTime="0.00" timeLoss="30.79" rerouteNo="0" devices="tripinfo_flow04.4" vType="CarA" speedFactor="0.89" vaporized=""/>
    <tripinfo id="flow05.8" depart="88.00" departLane="s_t_0" departPos="5.10" departSpeed="0.00" departDelay="2.90" arrival="133.00" arrivalLane="t_w_0" arrivalPos="136.25" arrivalSpeed="12.74" duration="45.00" routeLength="279.21" waitingTime="12.00" waitingCount="1" stopTime="0.00" timeLoss="23.61" rerouteNo="0" devices="tripinfo_flow05.8" vType="CarA" speedFactor="0.98" vaporized=""/>
    <tripinfo id="flow04.5" depart="85.00" departLane="s_t_0" departPos="5.10" departSpeed="0.00" departDelay="0.41" arrival="135.00" arrivalLane="t_n_0" arrivalPos="136.25" arrivalSpeed="14.94" duration="50.00" routeLength="294.90" waitingTime="18.00" waitingCount="1" stopTime="0.00" timeLoss="31.68" rerouteNo="0" devices="tripinfo_flow04.5" vType="CarA" speedFactor="1.21" vaporized=""/>
    <tripinfo id="flow04.6" depart="100.00" departLane="s_t_0" departPos="5.10" departSpeed="0.00" departDelay="3.38" arrival="136.00" arrivalLane="t_n_0" arrivalPos="136.25" arrivalSpeed="13.37" duration="36.00" routeLength="294.90" waitingTime="5.00" waitingCount="1" stopTime="0.00" timeLoss="15.51" rerouteNo="0" devices="tripinfo_flow04.6" vType="CarA" speedFactor="1.04" vaporized=""/>
    <tripinfo id="flow05.9" depart="91.00" departLane="s_t_0" departPos="5.10" departSpeed="0.00" departDelay="2.02" arrival="138.00" arrivalLane="t_w_0" arrivalPos="136.25" arrivalSpeed="12.17" duration="47.00" routeLength="279.21" waitingTime="11.00" waitingCount="1" stopTime="0.00" timeLoss="22.48" rerouteNo="0" devices="tripinfo_flow05.9" vType="CarA" speedFactor="0.89" vaporized=""/>
    <tripinfo id="flow04.7" depart="103.00" departLane="s_t_0" departPos="5.10" departSpeed="0.00" departDelay="4.86" arrival="138.00" arrivalLane="t_n_0" arrivalPos="136.25" arrivalSpeed="13.78" duration="35.00" routeLength="294.90" waitingTime="2.00" waitingCount="1" stopTime="0.00" timeLoss="14.19" rerouteNo="0" devices="tripinfo_flow04.7" vType="CarA" speedFactor="1.04" vaporized=""/>
    <tripinfo id="flow05.10" depart="94.00" departLane="s_t_0" departPos="5.10" departSpeed="0.00" departDelay="3.57" arrival="139.00" arrivalLane="t_w_0" arrivalPos="136.25" arrivalSpeed="13.16" duration="45.00" routeLength="279.21" waitingTime="11.00" waitingCount="1" stopTime="0.00" timeLoss="25.33" rerouteNo="0" devices="tripinfo_flow05.10" vType="CarA" speedFactor="1.05" vaporized=""/>
    <tripinfo id="flow05.11" depart="97.00" departLane="s_t_0" departPos="5.10" departSpeed="0.00" departDelay="3.69" arrival="141.00" arrivalLane="t_w_0" arrivalPos="136.25" arrivalSpeed="15.47" duration="44.00" routeLength="279.21" waitingTime="9.00" waitingCount="1" stopTime="0.00" timeLoss="26.26" rerouteNo="0" devices="tripinfo_flow05.11" vType="CarA" speedFactor="1.19" vaporized=""/>
    <tripinfo id="flow05.12" depart="106.00" departLane="s_t_0" departPos="5.10" departSpeed="0.00" departDelay="0.87" arrival="143.00" arrivalLane="t_w_0" arrivalPos="136.25" arrivalSpeed="12.98" duration="37.00" routeLength="279.21" waitingTime="1.00" waitingCount="1" stopTime="0.00" timeLoss="15.54" rerouteNo="0" devices="tripinfo_flow05.12" vType="CarA" speedFactor="0.99" vaporized=""/>
    <tripinfo id="flow06.4" depart="119.00" departLane="s_t_0" departPos="5.10" departSpeed="0.00" departDelay="0.45" arrival="147.00" arrivalLane="t_e_0" arrivalPos="136.25" arrivalSpeed="13.12" duration="28.00" routeLength="293.40" waitingTime="0.00" waitingCount="0" stopTime="0.00" timeLoss="4.68" rerouteNo="0" devices="tripinfo_flow06.4" vType="CarA" speedFactor="0.97" vaporized=""/>
    <tripinfo id="flow06.5" depart="124.00" departLane="s_t_0" departPos="5.10" departSpeed="0.00" departDelay="0.28" arrival="150.00" arrivalLane="t_e_0" arrivalPos="136.25" arrivalSpeed="13.27" duration="26.00" routeLength="293.40" waitingTime="0.00" waitingCount="0" stopTime="0.00" timeLoss="4.24" rerouteNo="0" devices="tripinfo_flow06.5" vType="CarA" speedFactor="1.01" vaporized=""/>
    <tripinfo id="flow05.13" depart="135.00" departLane="s_t_0" departPos="5.10" departSpeed="0.00" departDelay="0.15" arrival="161.00" arrivalLane="t_w_0" arrivalPos="136.25" arrivalSpeed="13.36" duration="26.00" routeLength="279.21" waitingTime="0.00" waitingCount="0" stopTime="0.00" timeLoss="5.13" rerouteNo="0" devices="tripinfo_flow05.13" vType="CarA" speedFactor="0.98" vaporized=""/>
    <tripinfo id="flow04.8" depart="138.00" departLane="s_t_0" departPos="5.10" departSpeed="0.00" departDelay="0.55" arrival="164.00" arrivalLane="t_n_0" arrivalPos="136.25" arrivalSpeed="12.08" duration="26.00" routeLength="294.90" waitingTime="0.00" waitingCount="0" stopTime="0.00" timeLoss="3.93" rerouteNo="0" devices="tripinfo_flow04.8" vType="CarA" speedFactor="0.96" vaporized=""/>
    <tripinfo id="flow05.14" depart="146.00" departLane="s_t_0" departPos="5.10" departSpeed="0.00" departDelay="0.55" arrival="175.00" arrivalLane="t_w_0" arrivalPos="136.25" arrivalSpeed="11.75" duration="29.00" routeLength="279.21" waitingTime="0.00" waitingCount="0" stopTime="0.00" timeLoss="5.32" rerouteNo="0" devices="tripinfo_flow05.14" vType="CarA" speedFactor="0.90" vaporized=""/>
    <tripinfo id="flow06.6" depart="149.00" departLane="s_t_0" departPos="5.10" departSpeed="0.00" departDelay="3.21" arrival="181.00" arrivalLane="t_e_0" arrivalPos="136.25" arrivalSpeed="10.80" duration="32.00" routeLength="293.40" waitingTime="0.00" waitingCount="0" stopTime="0.00" timeLoss="4.64" rerouteNo="0" devices="tripinfo_flow06.6" vType="CarA" speedFactor="0.81" vaporized=""/>
    <tripinfo id="flow06.7" depart="153.00" departLane="s_t_0" departPos="5.10" departSpeed="0.00" departDelay="0.73" arrival="183.00" arrivalLane="t_e_0" arrivalPos="136.25" arrivalSpeed="13.05" duration="30.00" routeLength="293.40" waitingTime="0.00" waitingCount="0" stopTime="0.00" timeLoss="6.46" rerouteNo="0" devices="tripinfo_flow06.7" vType="CarA" speedFactor="0.96" vaporized=""/>
    <tripinfo id="flow04.9" depart="158.00" departLane="s_t_0" departPos="5.10" departSpeed="0.00" departDelay="0.62" arrival="186.00" arrivalLane="t_n_0" arrivalPos="136.25" arrivalSpeed="11.37" duration="28.00" routeLength="294.90" waitingTime="0.00" waitingCount="0" stopTime="0.00" timeLoss="3.90" rerouteNo="0" devices="tripinfo_flow04.9" vType="CarA" speedFactor="0.91" vaporized=""/>
    <tripinfo id="flow05.15" depart="161.00" departLane="s_t_0" departPos="5.10" departSpeed="0.00" departDelay="2.00" arrival="190.00" arrivalLane="t_w_0" arrivalPos="136.25" arrivalSpeed="11.16" duration="29.00" routeLength="279.21" waitingTime="0.00" waitingCount="0" stopTime="0.00" timeLoss="5.27" rerouteNo="0" devices="tripinfo_flow05.15" vType="CarA" speedFactor="0.89" vaporized=""/>
    <tripinfo id="flow06.8" depart="165.00" departLane="s_t_0" departPos="5.10" departSpeed="0.00" departDelay="0.21" arrival="192.00" arrivalLane="t_e_0" arrivalPos="136.25" arrivalSpeed="13.93" duration="27.00" routeLength="293.40" waitingTime="0.00" waitingCount="0" stopTime="0.00" timeLoss="4.95" rerouteNo="0" devices="tripinfo_flow06.8" vType="CarA" speedFactor="1.01" vaporized=""/>
    <tripinfo id="flow11.0" depart="32.00" departLane="e_t_0" departPos="5.10" departSpeed="0.00" departDelay="0.93" arrival="203.00" arrivalLane="t_s_0" arrivalPos="136.25" arrivalSpeed="11.37" duration="171.00" routeLength="279.21" waitingTime="139.00" waitingCount="1" stopTime="0.00" timeLoss="147.41" rerouteNo="0" devices="tripinfo_flow11.0" vType="CarA" speedFactor="0.90" vaporized=""/>
    <tripinfo id="flow12.0" depart="24.00" departLane="e_t_0" departPos="5.10" departSpeed="0.00" departDelay="0.36" arrival="204.00" arrivalLane="t_n_0" arrivalPos="136.25" arrivalSpeed="13.41" duration="180.00" routeLength="293.40" waitingTime="148.00" waitingCount="1" stopTime="0.00" timeLoss="156.86" rerouteNo="0" devices="tripinfo_flow12.0" vType="CarA" speedFactor="0.98" vaporized=""/>
    <tripinfo id="flow11.1" depart="55.00" departLane="e_t_0" departPos="5.10" departSpeed="0.00" departDelay="0.30" arrival="205.00" arrivalLane="t_s_0" arrivalPos="136.25" arrivalSpeed="12.74" duration="150.00" routeLength="279.21" waitingTime="118.00" waitingCount="1" stopTime="0.00" timeLoss="127.81" rerouteNo="0" devices="tripinfo_flow11.1" vType="CarA" speedFactor="0.97" vaporized=""/>
    <tripinfo id="flow10.0" depart="12.00" departLane="e_t_0" departPos="5.10" departSpeed="0.00" departDelay="0.68" arrival="206.00" arrivalLane="t_w_0" arrivalPos="136.25" arrivalSpeed="10.53" duration="194.00" routeLength="294.90" waitingTime="158.00" waitingCount="1" stopTime="0.00" timeLoss="167.03" rerouteNo="0" devices="tripinfo_flow10.0" vType="CarA" speedFactor="0.81" vaporized=""/>
    <tripinfo id="flow12.1" depart="31.00" departLane="e_t_0" departPos="5.10" departSpeed="0.00" departDelay="2.28" arrival="206.00" arrivalLane="t_n_0" arrivalPos="136.25" arrivalSpeed="12.83" duration="175.00" routeLength="293.40" waitingTime="142.00" waitingCount="1" stopTime="0.00" timeLoss="151.15" rerouteNo="0" devices="tripinfo_flow12.1" vType="CarA" speedFactor="0.94" vaporized=""/>
    <tripinfo id="flow10.1" depart="15.00" departLane="e_t_0" departPos="5.10" departSpeed="0.00" departDelay="1.76" arrival="209.00" arrivalLane="t_w_0" arrivalPos="136.25" arrivalSpeed="9.31" duration="194.00" routeLength="294.90" waitingTime="155.00" waitingCount="1" stopTime="0.00" timeLoss="165.32" rerouteNo="0" devices="tripinfo_flow10.1" vType="CarA" speedFactor="0.76" vaporized=""/>
    <tripinfo id="flow03.5" depart="101.00" departLane="n_t_0" departPos="5.10" departSpeed="0.00" departDelay="0.24" arrival="211.00" arrivalLane="t_e_0" arrivalPos="136.25" arrivalSpeed="13.46" duration="110.00" routeLength="279.21" waitingTime="80.00" waitingCount="1" stopTime="0.00" timeLoss="89.14" rerouteNo="0" devices="tripinfo_flow03.5" vType="CarA" speedFactor="1.02" vaporized=""/>
    <tripinfo id="flow01.9" depart="106.00" departLane="n_t_0" departPos="5.10" departSpeed="0.00" departDelay="0.65" arrival="212.00" arrivalLane="t_s_0" arrivalPos="136.25" arrivalSpeed="13.11" duration="106.00" routeLength="294.90" waitingTime="75.00" waitingCount="1" stopTime="0.00" timeLoss="84.29" rerouteNo="0" devices="tripinfo_flow01.9" vType="CarA" speedFactor="1.01" vaporized=""/>
    <tripinfo id="flow02.5" depart="116.00" departLane="n_t_0" departPos="5.10" departSpeed="0.00" departDelay="0.23" arrival="212.00" arrivalLane="t_w_0" arrivalPos="136.25" arrivalSpeed="12.24" duration="96.00" routeLength="293.40" waitingTime="66.00" waitingCount="1" stopTime="0.00" timeLoss="72.87" rerouteNo="0" devices="tripinfo_flow02.5" vType="CarA" speedFactor="0.95" vaporized=""/>
    <tripinfo id="flow02.6" depart="117.00" departLane="n_t_0" departPos="5.10" departSpeed="0.00" departDelay="0.39" arrival="214.00" arrivalLane="t_w_0" arrivalPos="136.25" arrivalSpeed="13.30" duration="97.00" routeLength="293.40" waitingTime="64.00" waitingCount="1" stopTime="0.00" timeLoss="74.87" rerouteNo="0" devices="tripinfo_flow02.6" vType="CarA" speedFactor="1.00" vaporized=""/>
    <tripinfo id="flow03.6" depart="140.00" departLane="n_t_0" departPos="5.10" departSpeed="0.00" departDelay="0.09" arrival="214.00" arrivalLane="t_e_0" arrivalPos="136.25" arrivalSpeed="12.60" duration="74.00" routeLength="279.21" waitingTime="42.00" waitingCount="1" stopTime="0.00" timeLoss="51.25" rerouteNo="0" devices="tripinfo_flow03.6" vType="CarA" speedFactor="0.94" vaporized=""/>
    <tripinfo id="flow01.10" depart="113.00" departLane="n_t_0" departPos="5.10" departSpeed="0.00" departDelay="0.29" arrival="215.00" arrivalLane="t_s_0" arrivalPos="136.25" arrivalSpeed="11.74" duration="102.00" routeLength="294.90" waitingTime="68.00" waitingCount="1" stopTime="0.00" timeLoss="77.61" rerouteNo="0" devices="tripinfo_flow01.10" vType="CarA" speedFactor="0.89" vaporized=""/>
    <tripinfo id="flow03.7" depart="182.00" departLane="n_t_0" departPos="5.10" departSpeed="0.00" departDelay="0.43" arrival="216.00" arrivalLane="t_e_0" arrivalPos="136.25" arrivalSpeed="15.30" duration="34.00" routeLength="279.21" waitingTime="1.00" waitingCount="1" stopTime="0.00" timeLoss="14.16" rerouteNo="0" devices="tripinfo_flow03.7" vType="CarA" speedFactor="1.11" vaporized=""/>
    <tripinfo id="flow01.11" depart="124.00" departLane="n_t_0" departPos="5.10" departSpeed="0.00" departDelay="0.13" arrival="217.00" arrivalLane="t_s_0" arrivalPos="136.25" arrivalSpeed="12.31" duration="93.00" routeLength="294.90" waitingTime="60.00" waitingCount="1" stopTime="0.00" timeLoss="68.44" rerouteNo="0" devices="tripinfo_flow01.11" vType="CarA" speedFactor="0.89" vaporized=""/>
    <tripinfo id="flow02.7" depart="127.00" departLane="n_t_0" departPos="5.10" departSpeed="0.00" departDelay="1.87" arrival="217.00" arrivalLane="t_w_0" arrivalPos="136.25" arrivalSpeed="12.51" duration="90.00" routeLength="293.40" waitingTime="57.00" waitingCount="1" stopTime="0.00" timeLoss="66.43" rerouteNo="0" devices="tripinfo_flow02.7" vType="CarA" speedFactor="0.95" vaporized=""/>
    <tripinfo id="flow01.12" depart="134.00" departLane="n_t_0" departPos="5.10" departSpeed="0.00" departDelay="0.58" arrival="218.00" arrivalLane="t_s_0" arrivalPos="136.25" arrivalSpeed="12.93" duration="84.00" routeLength="294.90" waitingTime="52.00" waitingCount="1" stopTime="0.00" timeLoss="66.11" rerouteNo="0" devices="tripinfo_flow01.12" vType="CarA" speedFactor="1.19" vaporized=""/>
    <tripinfo id="flow02.8" depart="154.00" departLane="n_t_0" departPos="5.10" departSpeed="0.00" departDelay="0.52" arrival="218.00" arrivalLane="t_w_0" arrivalPos="136.25" arrivalSpeed="14.77" duration="64.00" routeLength="293.40" waitingTime="32.00" waitingCount="1" stopTime="0.00" timeLoss="43.73" rerouteNo="0" devices="tripinfo_flow02.8" vType="CarA" speedFactor="1.08" vaporized=""/>
    <tripinfo id="flow01.13" depart="145.00" departLane="n_t_0" departPos="5.10" departSpeed="0.00" departDelay="0.64" arrival="220.00" arrivalLane="t_s_0" arrivalPos="136.25" arrivalSpeed="15.20" duration="75.00" routeLength="294.90" waitingTime="42.00" waitingCount="1" stopTime="0.00" timeLoss="55.72" rerouteNo="0" devices="tripinfo_flow01.13" vType="CarA" speedFactor="1.13" vaporized=""/>
    <tripinfo id="flow02.9" depart="166.00" departLane="n_t_0" departPos="5.10" departSpeed="0.00" departDelay="0.57" arrival="221.00" arrivalLane="t_w_0" arrivalPos="136.25" arrivalSpeed="12.57" duration="55.00" routeLength="293.40" waitingTime="22.00" waitingCount="1" stopTime="0.00" timeLoss="31.86" rerouteNo="0" devices="tripinfo_flow02.9" vType="CarA" speedFactor="0.98" vaporized=""/>