<?xml version="1.0" encoding="UTF-8"?>

<!-- generated on 2024-07-07 16:50:07 by Eclipse SUMO libsumo Version 1.20.0
<configuration xmlns:xsi="http://www.w3.org/2001/XMLSchema-instance" xsi:noNamespaceSchemaLocation="http://sumo.dlr.de/xsd/libsumoConfiguration.xsd">

    <input>
        <net-file value="sumo_rl/nets/2way-single-intersection/single-intersection-4.net.xml"/>
        <route-files value="/root/autodl-tmp/outputs/2024-07-07/16-49-54-1684/output.rou.xml"/>
    </input>

    <output>
        <tripinfo-output value="/root/autodl-tmp/outputs/2024-07-07/16-49-54-1684/tripinfos-3.xml"/>
    </output>

    <processing>
        <time-to-teleport value="-1"/>
        <waiting-time-memory value="1000"/>
        <max-depart-delay value="-1"/>
    </processing>

    <random_number>
        <seed value="27"/>
    </random_number>

</configuration>
-->

<tripinfos xmlns:xsi="http://www.w3.org/2001/XMLSchema-instance" xsi:noNamespaceSchemaLocation="http://sumo.dlr.de/xsd/tripinfo_file.xsd">
    <tripinfo id="flow11.0" depart="1.00" departLane="e_t_0" departPos="5.10" departSpeed="0.00" departDelay="0.68" arrival="24.00" arrivalLane="t_s_0" arrivalPos="136.25" arrivalSpeed="16.25" duration="23.00" routeLength="279.21" waitingTime="0.00" waitingCount="0" stopTime="0.00" timeLoss="5.43" rerouteNo="0" devices="tripinfo_flow11.0" vType="CarA" speedFactor="1.17" vaporized=""/>
    <tripinfo id="flow03.0" depart="4.00" departLane="n_t_0" departPos="5.10" departSpeed="0.00" departDelay="0.80" arrival="31.00" arrivalLane="t_e_0" arrivalPos="136.25" arrivalSpeed="15.29" duration="27.00" routeLength="279.21" waitingTime="0.00" waitingCount="0" stopTime="0.00" timeLoss="8.18" rerouteNo="0" devices="tripinfo_flow03.0" vType="CarA" speedFactor="1.14" vaporized=""/>
    <tripinfo id="flow01.0" depart="10.00" departLane="n_t_0" departPos="5.10" departSpeed="0.00" departDelay="0.92" arrival="37.00" arrivalLane="t_s_0" arrivalPos="136.25" arrivalSpeed="12.91" duration="27.00" routeLength="294.90" waitingTime="0.00" waitingCount="0" stopTime="0.00" timeLoss="4.13" rerouteNo="0" devices="tripinfo_flow01.0" vType="CarA" speedFactor="0.95" vaporized=""/>
    <tripinfo id="flow03.1" depart="13.00" departLane="n_t_0" departPos="5.10" departSpeed="0.00" departDelay="3.38" arrival="39.00" arrivalLane="t_e_0" arrivalPos="136.25" arrivalSpeed="12.49" duration="26.00" routeLength="279.21" waitingTime="0.00" waitingCount="0" stopTime="0.00" timeLoss="4.87" rerouteNo="0" devices="tripinfo_flow03.1" vType="CarA" speedFactor="0.97" vaporized=""/>
    <tripinfo id="flow01.1" depart="16.00" departLane="n_t_0" departPos="5.10" departSpeed="0.00" departDelay="4.78" arrival="40.00" arrivalLane="t_s_0" arrivalPos="136.25" arrivalSpeed="15.08" duration="24.00" routeLength="294.90" waitingTime="0.00" waitingCount="0" stopTime="0.00" timeLoss="4.73" rerouteNo="0" devices="tripinfo_flow01.1" vType="CarA" speedFactor="1.14" vaporized=""/>
    <tripinfo id="flow06.0" depart="22.00" departLane="s_t_0" departPos="5.10" departSpeed="0.00" departDelay="10.14" arrival="45.00" arrivalLane="t_e_0" arrivalPos="136.25" arrivalSpeed="15.37" duration="23.00" routeLength="293.40" waitingTime="0.00" waitingCount="0" stopTime="0.00" timeLoss="4.08" rerouteNo="0" devices="tripinfo_flow06.0" vType="CarA" speedFactor="1.15" vaporized=""/>
    <tripinfo id="flow05.0" depart="7.00" departLane="s_t_0" departPos="5.10" departSpeed="0.00" departDelay="2.20" arrival="46.00" arrivalLane="t_w_0" arrivalPos="136.25" arrivalSpeed="14.11" duration="39.00" routeLength="279.21" waitingTime="11.00" waitingCount="1" stopTime="0.00" timeLoss="19.45" rerouteNo="0" devices="tripinfo_flow05.0" vType="CarA" speedFactor="1.08" vaporized=""/>
    <tripinfo id="flow05.1" depart="19.00" departLane="s_t_0" departPos="5.10" departSpeed="0.00" departDelay="7.03" arrival="50.00" arrivalLane="t_w_0" arrivalPos="136.25" arrivalSpeed="12.22" duration="31.00" routeLength="279.21" waitingTime="0.00" waitingCount="0" stopTime="0.00" timeLoss="8.16" rerouteNo="0" devices="tripinfo_flow05.1" vType="CarA" speedFactor="0.95" vaporized=""/>
    <tripinfo id="flow04.0" depart="1.00" departLane="s_t_0" departPos="5.10" departSpeed="0.00" departDelay="0.05" arrival="52.00" arrivalLane="t_n_0" arrivalPos="136.25" arrivalSpeed="10.04" duration="51.00" routeLength="294.90" waitingTime="14.00" waitingCount="1" stopTime="0.00" timeLoss="21.36" rerouteNo="0" devices="tripinfo_flow04.0" vType="CarA" speedFactor="0.73" vaporized=""/>
    <tripinfo id="flow04.1" depart="4.00" departLane="s_t_0" departPos="5.10" departSpeed="0.00" departDelay="1.85" arrival="54.00" arrivalLane="t_n_0" arrivalPos="136.25" arrivalSpeed="11.60" duration="50.00" routeLength="294.90" waitingTime="13.00" waitingCount="1" stopTime="0.00" timeLoss="26.07" rerouteNo="0" devices="tripinfo_flow04.1" vType="CarA" speedFactor="0.91" vaporized=""/>
    <tripinfo id="flow04.2" depart="10.00" departLane="s_t_0" departPos="5.10" departSpeed="0.00" departDelay="2.62" arrival="55.00" arrivalLane="t_n_0" arrivalPos="136.25" arrivalSpeed="12.88" duration="45.00" routeLength="294.90" waitingTime="9.00" waitingCount="1" stopTime="0.00" timeLoss="24.31" rerouteNo="0" devices="tripinfo_flow04.2" vType="CarA" speedFactor="1.03" vaporized=""/>
    <tripinfo id="flow04.3" depart="13.00" departLane="s_t_0" departPos="5.10" departSpeed="0.00" departDelay="4.34" arrival="57.00" arrivalLane="t_n_0" arrivalPos="136.25" arrivalSpeed="12.36" duration="44.00" routeLength="294.90" waitingTime="7.00" waitingCount="1" stopTime="0.00" timeLoss="22.13" rerouteNo="0" devices="tripinfo_flow04.3" vType="CarA" speedFactor="0.98" vaporized=""/>
    <tripinfo id="flow04.4" depart="16.00" departLane="s_t_0" departPos="5.10" departSpeed="0.00" departDelay="5.71" arrival="59.00" arrivalLane="t_n_0" arrivalPos="136.25" arrivalSpeed="13.43" duration="43.00" routeLength="294.90" waitingTime="6.00" waitingCount="1" stopTime="0.00" timeLoss="20.86" rerouteNo="0" devices="tripinfo_flow04.4" vType="CarA" speedFactor="0.98" vaporized=""/>
    <tripinfo id="flow05.2" depart="39.00" departLane="s_t_0" departPos="5.10" departSpeed="0.00" departDelay="0.81" arrival="66.00" arrivalLane="t_w_0" arrivalPos="136.25" arrivalSpeed="13.14" duration="27.00" routeLength="279.21" waitingTime="0.00" waitingCount="0" stopTime="0.00" timeLoss="5.72" rerouteNo="0" devices="tripinfo_flow05.2" vType="CarA" speedFactor="1.03" vaporized=""/>
    <tripinfo id="flow05.3" depart="43.00" departLane="s_t_0" departPos="5.10" departSpeed="0.00" departDelay="0.99" arrival="72.00" arrivalLane="t_w_0" arrivalPos="136.25" arrivalSpeed="12.82" duration="29.00" routeLength="279.21" waitingTime="0.00" waitingCount="0" stopTime="0.00" timeLoss="6.01" rerouteNo="0" devices="tripinfo_flow05.3" vType="CarA" speedFactor="0.94" vaporized=""/>
    <tripinfo id="flow04.5" depart="67.00" departLane="s_t_0" departPos="5.10" departSpeed="0.00" departDelay="0.15" arrival="92.00" arrivalLane="t_n_0" arrivalPos="136.25" arrivalSpeed="13.26" duration="25.00" routeLength="294.90" waitingTime="0.00" waitingCount="0" stopTime="0.00" timeLoss="4.23" rerouteNo="0" devices="tripinfo_flow04.5" vType="CarA" speedFactor="1.04" vaporized=""/>
    <tripinfo id="flow04.6" depart="70.00" departLane="s_t_0" departPos="5.10" departSpeed="0.00" departDelay="2.36" arrival="96.00" arrivalLane="t_n_0" arrivalPos="136.25" arrivalSpeed="12.29" duration="26.00" routeLength="294.90" waitingTime="0.00" waitingCount="0" stopTime="0.00" timeLoss="3.70" rerouteNo="0" devices="tripinfo_flow04.6" vType="CarA" speedFactor="0.97" vaporized=""/>
    <tripinfo id="flow04.7" depart="73.00" departLane="s_t_0" departPos="5.10" departSpeed="0.00" departDelay="2.10" arrival="102.00" arrivalLane="t_n_0" arrivalPos="136.25" arrivalSpeed="11.27" duration="29.00" routeLength="294.90" waitingTime="0.00" waitingCount="0" stopTime="0.00" timeLoss="4.30" rerouteNo="0" devices="tripinfo_flow04.7" vType="CarA" speedFactor="0.89" vaporized=""/>
    <tripinfo id="flow05.4" depart="84.00" departLane="s_t_0" departPos="5.10" departSpeed="0.00" departDelay="0.59" arrival="108.00" arrivalLane="t_w_0" arrivalPos="136.25" arrivalSpeed="14.53" duration="24.00" routeLength="279.21" waitingTime="0.00" waitingCount="0" stopTime="0.00" timeLoss="5.08" rerouteNo="0" devices="tripinfo_flow05.4" vType="CarA" speedFactor="1.09" vaporized=""/>
    <tripinfo id="flow05.5" depart="103.00" departLane="s_t_0" departPos="5.10" departSpeed="0.00" departDelay="0.67" arrival="129.00" arrivalLane="t_w_0" arrivalPos="136.25" arrivalSpeed="14.61" duration="26.00" routeLength="279.21" waitingTime="0.00" waitingCount="0" stopTime="0.00" timeLoss="5.99" rerouteNo="0" devices="tripinfo_flow05.5" vType="CarA" speedFactor="1.05" vaporized=""/>
    <tripinfo id="flow04.8" depart="114.00" departLane="s_t_0" departPos="5.10" departSpeed="0.00" departDelay="0.40" arrival="138.00" arrivalLane="t_n_0" arrivalPos="136.25" arrivalSpeed="15.47" duration="24.00" routeLength="294.90" waitingTime="0.00" waitingCount="0" stopTime="0.00" timeLoss="5.30" rerouteNo="0" devices="tripinfo_flow04.8" vType="CarA" speedFactor="1.14" vaporized=""/>
    <tripinfo id="flow05.6" depart="119.00" departLane="s_t_0" departPos="5.10" departSpeed="0.00" departDelay="1.84" arrival="144.00" arrivalLane="t_w_0" arrivalPos="136.25" arrivalSpeed="14.87" duration="25.00" routeLength="279.21" waitingTime="0.00" waitingCount="0" stopTime="0.00" timeLoss="6.39" rerouteNo="0" devices="tripinfo_flow05.6" vType="CarA" speedFactor="1.12" vaporized=""/>
    <tripinfo id="flow06.1" depart="117.00" departLane="s_t_0" departPos="5.10" departSpeed="0.00" departDelay="3.08" arrival="145.00" arrivalLane="t_e_0" arrivalPos="136.25" arrivalSpeed="12.53" duration="28.00" routeLength="293.40" waitingTime="0.00" waitingCount="0" stopTime="0.00" timeLoss="4.88" rerouteNo="0" devices="tripinfo_flow06.1" vType="CarA" speedFactor="0.95" vaporized=""/>
    <tripinfo id="flow04.9" depart="122.00" departLane="s_t_0" departPos="5.10" departSpeed="0.00" departDelay="3.08" arrival="150.00" arrivalLane="t_n_0" arrivalPos="136.25" arrivalSpeed="12.22" duration="28.00" routeLength="294.90" waitingTime="0.00" waitingCount="0" stopTime="0.00" timeLoss="4.04" rerouteNo="0" devices="tripinfo_flow04.9" vType="CarA" speedFactor="0.90" vaporized=""/>
    <tripinfo id="flow06.2" depart="125.00" departLane="s_t_0" departPos="5.10" departSpeed="0.00" departDelay="0.87" arrival="151.00" arrivalLane="t_e_0" arrivalPos="136.25" arrivalSpeed="13.84" duration="26.00" routeLength="293.40" waitingTime="0.00" waitingCount="0" stopTime="0.00" timeLoss="5.10" rerouteNo="0" devices="tripinfo_flow06.2" vType="CarA" speedFactor="1.06" vaporized=""/>
    <tripinfo id="flow05.7" depart="127.00" departLane="s_t_0" departPos="5.10" departSpeed="0.00" departDelay="1.76" arrival="152.00" arrivalLane="t_w_0" arrivalPos="136.25" arrivalSpeed="14.49" duration="25.00" routeLength="279.21" waitingTime="0.00" waitingCount="0" stopTime="0.00" timeLoss="5.92" rerouteNo="0" devices="tripinfo_flow05.7" vType="CarA" speedFactor="1.11" vaporized=""/>
    <tripinfo id="flow04.10" depart="130.00" departLane="s_t_0" departPos="5.10" departSpeed="0.00" departDelay="3.36" arrival="158.00" arrivalLane="t_n_0" arrivalPos="136.25" arrivalSpeed="11.60" duration="28.00" routeLength="294.90" waitingTime="0.00" waitingCount="0" stopTime="0.00" timeLoss="3.79" rerouteNo="0" devices="tripinfo_flow04.10" vType="CarA" speedFactor="0.89" vaporized=""/>
    <tripinfo id="flow04.11" depart="133.00" departLane="s_t_0" departPos="5.10" departSpeed="0.00" departDelay="0.62" arrival="160.00" arrivalLane="t_n_0" arrivalPos="136.25" arrivalSpeed="15.00" duration="27.00" routeLength="294.90" waitingTime="0.00" waitingCount="0" stopTime="0.00" timeLoss="8.00" rerouteNo="0" devices="tripinfo_flow04.11" vType="CarA" speedFactor="1.16" vaporized=""/>
    <tripinfo id="flow12.0" depart="7.00" departLane="e_t_0" departPos="5.10" departSpeed="0.00" departDelay="4.29" arrival="163.00" arrivalLane="t_n_0" arrivalPos="136.25" arrivalSpeed="15.35" duration="156.00" routeLength="293.40" waitingTime="127.00" waitingCount="1" stopTime="0.00" timeLoss="137.16" rerouteNo="0" devices="tripinfo_flow12.0" vType="CarA" speedFactor="1.15" vaporized=""/>
    <tripinfo id="flow10.0" depart="14.00" departLane="e_t_0" departPos="5.10" departSpeed="0.00" departDelay="0.97" arrival="164.00" arrivalLane="t_w_0" arrivalPos="136.25" arrivalSpeed="14.51" duration="150.00" routeLength="294.90" waitingTime="120.00" waitingCount="1" stopTime="0.00" timeLoss="129.73" rerouteNo="0" devices="tripinfo_flow10.0" vType="CarA" speedFactor="1.06" vaporized=""/>
    <tripinfo id="flow11.1" depart="4.00" departLane="e_t_0" departPos="5.10" departSpeed="0.00" departDelay="1.65" arrival="166.00" arrivalLane="t_s_0" arrivalPos="136.25" arrivalSpeed="11.50" duration="162.00" routeLength="279.21" waitingTime="128.00" waitingCount="1" stopTime="0.00" timeLoss="137.19" rerouteNo="0" devices="tripinfo_flow11.1" vType="CarA" speedFactor="0.87" vaporized=""/>
    <tripinfo id="flow10.1" depart="42.00" departLane="e_t_0" departPos="5.10" departSpeed="0.00" departDelay="0.28" arrival="166.00" arrivalLane="t_w_0" arrivalPos="136.25" arrivalSpeed="14.42" duration="124.00" routeLength="294.90" waitingTime="94.00" waitingCount="1" stopTime="0.00" timeLoss="103.60" rerouteNo="0" devices="tripinfo_flow10.1" vType="CarA" speedFactor="1.06" vaporized=""/>
    <tripinfo id="flow11.2" depart="8.00" departLane="e_t_0" departPos="5.10" departSpeed="0.00" departDelay="0.99" arrival="167.00" arrivalLane="t_s_0" arrivalPos="136.25" arrivalSpeed="13.32" duration="159.00" routeLength="279.21" waitingTime="128.00" waitingCount="1" stopTime="0.00" timeLoss="139.67" rerouteNo="0" devices="tripinfo_flow11.2" vType="CarA" speedFactor="1.09" vaporized=""/>
    <tripinfo id="flow12.1" depart="17.00" departLane="e_t_0" departPos="5.10" departSpeed="0.00" departDelay="0.11" arrival="167.00" arrivalLane="t_n_0" arrivalPos="136.25" arrivalSpeed="12.24" duration="150.00" routeLength="293.40" waitingTime="118.00" waitingCount="1" stopTime="0.00" timeLoss="127.17" rerouteNo="0" devices="tripinfo_flow12.1" vType="CarA" speedFactor="0.96" vaporized=""/>
    <tripinfo id="flow03.2" depart="24.00" departLane="n_t_0" departPos="5.10" departSpeed="0.00" departDelay="9.87" arrival="174.00" arrivalLane="t_e_0" arrivalPos="136.25" arrivalSpeed="13.01" duration="150.00" routeLength="279.21" waitingTime="119.00" waitingCount="1" stopTime="0.00" timeLoss="126.85" rerouteNo="0" devices="tripinfo_flow03.2" vType="CarA" speedFactor="0.94" vaporized=""/>
    <tripinfo id="flow02.0" depart="19.00" departLane="n_t_0" departPos="5.10" departSpeed="0.00" departDelay="7.56" arrival="175.00" arrivalLane="t_w_0" arrivalPos="136.25" arrivalSpeed="12.34" duration="156.00" routeLength="293.40" waitingTime="122.00" waitingCount="1" stopTime="0.00" timeLoss="131.44" rerouteNo="0" devices="tripinfo_flow02.0" vType="CarA" speedFactor="0.89" vaporized=""/>
    <tripinfo id="flow03.3" depart="32.00" departLane="n_t_0" departPos="5.10" departSpeed="0.00" departDelay="2.46" arrival="175.00" arrivalLane="t_e_0" arrivalPos="136.25" arrivalSpeed="14.14" duration="143.00" routeLength="279.21" waitingTime="113.00" waitingCount="1" stopTime="0.00" timeLoss="123.54" rerouteNo="0" devices="tripinfo_flow03.3" vType="CarA" speedFactor="1.08" vaporized=""/>
    <tripinfo id="flow02.1" depart="30.00" departLane="n_t_0" departPos="5.10" departSpeed="0.00" departDelay="2.46" arrival="177.00" arrivalLane="t_w_0" arrivalPos="136.25" arrivalSpeed="14.67" duration="147.00" routeLength="293.40" waitingTime="112.00" waitingCount="1" stopTime="0.00" timeLoss="126.70" rerouteNo="0" devices="tripinfo_flow02.1" vType="CarA" speedFactor="1.10" vaporized=""/>
    <tripinfo id="flow03.4" depart="148.00" departLane="n_t_0" departPos="5.10" departSpeed="0.00" departDelay="0.99" arrival="177.00" arrivalLane="t_e_0" arrivalPos="136.25" arrivalSpeed="13.83" duration="29.00" routeLength="279.21" waitingTime="0.00" waitingCount="0" stopTime="0.00" timeLoss="8.46" rerouteNo="0" devices="tripinfo_flow03.4" vType="CarA" speedFactor="1.04" vaporized=""/>
    <tripinfo id="flow01.2" depart="21.00" departLane="n_t_0" departPos="5.10" departSpeed="0.00" departDelay="8.30" arrival="178.00" arrivalLane="t_s_0" arrivalPos="136.25" arrivalSpeed="10.17" duration="157.00" routeLength="294.90" waitingTime="120.00" waitingCount="1" stopTime="0.00" timeLoss="127.83" rerouteNo="0" devices="tripinfo_flow01.2" vType="CarA" speedFactor="0.74" vaporized=""/>
    <tripinfo id="flow02.2" depart="47.00" departLane="n_t_0" departPos="5.10" departSpeed="0.00" departDelay="0.92" arrival="179.00" arrivalLane="t_w_0" arrivalPos="136.25" arrivalSpeed="12.96" duration="132.00" routeLength="293.40" waitingTime="99.00" waitingCount="1" stopTime="0.00" timeLoss="109.72" rerouteNo="0" devices="tripinfo_flow02.2" vType="CarA" speedFactor="1.01" vaporized=""/>
    <tripinfo id="flow01.3" depart="27.00" departLane="n_t_0" departPos="5.10" departSpeed="0.00" departDelay="2.36" arrival="180.00" arrivalLane="t_s_0" arrivalPos="136.25" arrivalSpeed="12.06" duration="153.00" routeLength="294.90" waitingTime="118.00" waitingCount="1" stopTime="0.00" timeLoss="135.79" rerouteNo="0" devices="tripinfo_flow01.3" vType="CarA" speedFactor="1.26" vaporized=""/>
    <tripinfo id="flow02.3" depart="55.00" departLane="n_t_0" departPos="5.10" departSpeed="0.00" departDelay="3.37" arrival="180.00" arrivalLane="t_w_0" arrivalPos="136.25" arrivalSpeed="13.75" duration="125.00" routeLength="293.40" waitingTime="94.00" waitingCount="1" stopTime="0.00" timeLoss="103.65" rerouteNo="0" devices="tripinfo_flow02.3" vType="CarA" speedFactor="1.02" vaporized=""/>
    <tripinfo id="flow01.4" depart="52.00" departLane="n_t_0" departPos="5.10" departSpeed="0.00" departDelay="0.64" arrival="182.00" arrivalLane="t_s_0" arrivalPos="136.25" arrivalSpeed="11.32" duration="130.00" routeLength="294.90" waitingTime="94.00" waitingCount="1" stopTime="0.00" timeLoss="105.09" rerouteNo="0" devices="tripinfo_flow01.4" vType="CarA" speedFactor="0.87" vaporized=""/>
    <tripinfo id="flow02.4" depart="64.00" departLane="n_t_0" departPos="5.10" departSpeed="0.00" departDelay="2.03" arrival="183.00" arrivalLane="t_w_0" arrivalPos="136.25" arrivalSpeed="12.04" duration="119.00" routeLength="293.40" waitingTime="84.00" waitingCount="1" stopTime="0.00" timeLoss="95.49" rerouteNo="0" devices="tripinfo_flow02.4" vType="CarA" speedFactor="0.95" vaporized=""/>
    <tripinfo id="flow01.5" depart="61.00" departLane="n_t_0" departPos="5.10" departSpeed="0.00" departDelay="0.30" arrival="184.00" arrivalLane="t_s_0" arrivalPos="136.25" arrivalSpeed="14.38" duration="123.00" routeLength="294.90" waitingTime="87.00" waitingCount="1" stopTime="0.00" timeLoss="102.42" rerouteNo="0" devices="tripinfo_flow01.5" vType="CarA" speedFactor="1.08" vaporized=""/>
    <tripinfo id="flow11.3" depart="24.00" departLane="e_t_0" departPos="5.10" departSpeed="0.00" departDelay="0.52" arrival="187.00" arrivalLane="t_s_0" arrivalPos="136.25" arrivalSpeed="13.45" duration="163.00" routeLength="279.21" waitingTime="125.00" waitingCount="2" stopTime="0.00" timeLoss="141.58" rerouteNo="0" devices="tripinfo_flow11.3" vType="CarA" speedFactor="0.97" vaporized=""/>
    <tripinfo id="flow10.2" depart="47.00" departLane="e_t_0" departPos="5.10" departSpeed="0.00" departDelay="0.23" arrival="187.00" arrivalLane="t_w_0" arrivalPos="136.25" arrivalSpeed="16.93" duration="140.00" routeLength="294.90" waitingTime="106.00" waitingCount="2" stopTime="0.00" timeLoss="122.11" rerouteNo="0" devices="tripinfo_flow10.2" vType="CarA" speedFactor="1.25" vaporized=""/>
    <tripinfo id="flow12.2" depart="19.00" departLane="e_t_0" departPos="5.10" departSpeed="0.00" departDelay="0.65" arrival="188.00" arrivalLane="t_n_0" arrivalPos="136.25" arrivalSpeed="13.24" duration="169.00" routeLength="293.40" waitingTime="132.00" waitingCount="2" stopTime="0.00" timeLoss="146.30" rerouteNo="0" devices="tripinfo_flow12.2" vType="CarA" speedFactor="0.97" vaporized=""/>
    <tripinfo id="flow11.4" depart="27.00" departLane="e_t_0" departPos="5.10" departSpeed="0.00" departDelay="2.80" arrival="190.00" arrivalLane="t_s_0" arrivalPos="136.25" arrivalSpeed="13.06" duration="163.00" routeLength="279.21" waitingTime="126.00" waitingCount="2" stopTime="0.00" timeLoss="140.35" rerouteNo="0" devices="tripinfo_flow11.4" vType="CarA" speedFactor="0.94" vaporized=""/>
    <tripinfo id="flow12.3" depart="53.00" departLane="e_t_0" departPos="5.10" departSpeed="0.00" departDelay="6.95" arrival="190.00" arrivalLane="t_n_0" arrivalPos="136.25" arrivalSpeed="13.00" duration="137.00" routeLength="293.40" waitingTime="101.00" waitingCount="2" stopTime="0.00" timeLoss="114.86" rerouteNo="0" devices="tripinfo_flow12.3" vType="CarA" speedFactor="1.00" vaporized=""/>
    <tripinfo id="flow10.3" depart="65.00" departLane="e_t_0" departPos="5.10" departSpeed="0.00" departDelay="0.37" arrival="192.00" arrivalLane="t_w_0" arrivalPos="136.25" arrivalSpeed="11.04" duration="127.00" routeLength="294.90" waitingTime="88.00" waitingCount="2" stopTime="0.00" timeLoss="100.98" rerouteNo="0" devices="tripinfo_flow10.3" vType="CarA" speedFactor="0.84" vaporized=""/>
    <tripinfo id="flow02.5" depart="67.00" departLane="n_t_0" departPos="5.10" departSpeed="0.00" departDelay="0.02" arrival="196.00" arrivalLane="t_w_0" arrivalPos="136.25" arrivalSpeed="14.87" duration="129.00" routeLength="293.40" waitingTime="93.00" waitingCount="2" stopTime="0.00" timeLoss="108.22" rerouteNo="0" devices="tripinfo_flow02.5" vType="CarA" speedFactor="1.08" vaporized=""/>
    <tripinfo id="flow01.6" depart="78.00" departLane="n_t_0" departPos="5.10" departSpeed="0.00" departDelay="0.28" arrival="197.00" arrivalLane="t_s_0" arrivalPos="136.25" arrivalSpeed="13.23" duration="119.00" routeLength="294.90" waitingTime="79.00" waitingCount="2" stopTime="0.00" timeLoss="97.55" rerouteNo="0" devices="tripinfo_flow01.6" vType="CarA" speedFactor="1.00" vaporized=""/>
    <tripinfo id="flow02.6" depart="70.00" departLane="n_t_0" departPos="5.10" departSpeed="0.00" departDelay="0.41" arrival="199.00" arrivalLane="t_w_0" arrivalPos="136.25" arrivalSpeed="12.24" duration="129.00" routeLength="293.40" waitingTime="91.00" waitingCount="2" stopTime="0.00" timeLoss="106.20" rerouteNo="0" devices="tripinfo_flow02.6" vType="CarA" speedFactor="0.96" vaporized=""/>
    <tripinfo id="flow01.7" depart="95.00" departLane="n_t_0" departPos="5.10" departSpeed="0.00" departDelay="0.52" arrival="200.00" arrivalLane="t_s_0" arrivalPos="136.25" arrivalSpeed="13.00" duration="105.00" routeLength="294.90" waitingTime="64.00" waitingCount="2" stopTime="0.00" timeLoss="81.60" rerouteNo="0" devices="tripinfo_flow01.7" vType="CarA" speedFactor="0.94" vaporized=""/>
    <tripinfo id="flow02.7" depart="81.00" departLane="n_t_0" departPos="5.10" departSpeed="0.00" departDelay="0.35" arrival="201.00" arrivalLane="t_w_0" arrivalPos="136.25" arrivalSpeed="13.97" duration="120.00" routeLength="293.40" waitingTime="82.00" waitingCount="2" stopTime="0.00" timeLoss="98.53" rerouteNo="0" devices="tripinfo_flow02.7" vType="CarA" speedFactor="1.03" vaporized=""/>
    <tripinfo id="flow01.8" depart="98.00" departLane="n_t_0" departPos="5.10" departSpeed="0.00" departDelay="1.63" arrival="201.00" arrivalLane="t_s_0" arrivalPos="136.25" arrivalSpeed="12.49" duration="103.00" routeLength="294.90" waitingTime="62.00" waitingCount="2" stopTime="0.00" timeLoss="81.21" rerouteNo="0" devices="tripinfo_flow01.8" vType="CarA" speedFactor="0.98" vaporized=""/>
    <tripinfo id="flow02.8" depart="92.00" departLane="n_t_0" departPos="5.10" departSpeed="0.00" departDelay="0.94" arrival="203.00" arrivalLane="t_w_0" arrivalPos="136.25" arrivalSpeed="13.66" duration="111.00" routeLength="293.40" waitingTime="71.00" waitingCount="2" stopTime="0.00" timeLoss="89.36" rerouteNo="0" devices="tripinfo_flow02.8" vType="CarA" speedFactor="1.03" vaporized=""/>
    <tripinfo id="flow01.9" depart="100.00" departLane="n_t_0" departPos="5.10" departSpeed="0.00" departDelay="2.68" arrival="203.00" arrivalLane="t_s_0" arrivalPos="136.25" arrivalSpeed="14.15" duration="103.00" routeLength="294.90" waitingTime="59.00" waitingCount="2" stopTime="0.00" timeLoss="82.10" rerouteNo="0" devices="tripinfo_flow01.9" vType="CarA" speedFactor="1.04" vaporized=""/>
    <tripinfo id="flow02.9" depart="97.00" departLane="n_t_0" departPos="5.10" departSpeed="0.00" departDelay="1.29" arrival="205.00" arrivalLane="t_w_0" arrivalPos="136.25" arrivalSpeed="13.73" duration="108.00" routeLength="293.40" waitingTime="68.00" waitingCount="2" stopTime="0.00" timeLoss="87.05" rerouteNo="0" devices="tripinfo_flow02.9" vType="CarA" speedFactor="1.07" vaporized=""/>
    <tripinfo id="flow02.10" depart="103.00" departLane="n_t_0" departPos="5.10" departSpeed="0.00" departDelay="0.64" arrival="207.00" arrivalLane="t_w_0" arrivalPos="136.25" arrivalSpeed="13.18" duration="104.00" routeLength="293.40" waitingTime="63.00" waitingCount="2" stopTime="0.00" timeLoss="81.77" rerouteNo="0" devices="tripinfo_flow02.10" vType="CarA" speedFactor="0.98" vaporized=""/>
    <tripinfo id="flow01.10" depart="106.00" departLane="n_t_0" departPos="5.10" departSpeed="0.00" departDelay="0.39" arrival="207.00" arrivalLane="t_s_0" arrivalPos="136.25" arrivalSpeed="11.58" duration="101.00" routeLength="294.90" waitingTime="55.00" waitingCount="2" stopTime="0.00" timeLoss="75.51" rerouteNo="0" devices="tripinfo_flow01.10" vType="CarA" speedFactor="0.86" vaporized=""/>
    <tripinfo id="flow01.11" depart="110.00" departLane="n_t_0" departPos="5.10" departSpeed="0.00" departDelay="0.69" arrival="208.00" arrivalLane="t_s_0" arrivalPos="136.25" arrivalSpeed="13.18" duration="98.00" routeLength="294.90" waitingTime="52.00" waitingCount="2" stopTime="0.00" timeLoss="77.94" rerouteNo="0" devices="tripinfo_flow01.11" vType="CarA" speedFactor="1.06" vaporized=""/>
    <tripinfo id="flow02.11" depart="140.00" departLane="n_t_0" departPos="5.10" departSpeed="0.00" departDelay="0.30" arrival="209.00" arrivalLane="t_w_0" arrivalPos="136.25" arrivalSpeed="14.52" duration="69.00" routeLength="293.40" waitingTime="26.00" waitingCount="2" stopTime="0.00" timeLoss="49.65" rerouteNo="0" devices="tripinfo_flow02.11" vType="CarA" speedFactor="1.15" vaporized=""/>
    <tripinfo id="flow01.12" depart="123.00" departLane="n_t_0" departPos="5.10" departSpeed="0.00" departDelay="0.45" arrival="210.00" arrivalLane="t_s_0" arrivalPos="136.25" arrivalSpeed="13.23" duration="87.00" routeLength="294.90" waitingTime="39.00" waitingCount="2" stopTime="0.00" timeLoss="65.19" rerouteNo="0" devices="tripinfo_flow01.12" vType="CarA" speedFactor="0.99" vaporized=""/>
    <tripinfo id="flow02.12" depart="142.00" departLane="n_t_0" departPos="5.10" departSpeed="0.00" departDelay="0.84" arrival="211.00" arrivalLane="t_w_0" arrivalPos="136.25" arrivalSpeed="13.14" duration="69.00" routeLength="293.40" waitingTime="26.00" waitingCount="2" stopTime="0.00" timeLoss="47.13" rerouteNo="0" devices="tripinfo_flow02.12" vType="CarA" speedFactor="1.00" vaporized=""/>
    <tripinfo id="flow01.13" depart="124.00" departLane="n_t_0" departPos="5.10" departSpeed="0.00" departDelay="0.00" arrival="212.00" arrivalLane="t_s_0" arrivalPos="136.25" arrivalSpeed="12.28" duration="88.00" routeLength="294.90" waitingTime="38.00" waitingCount="2" stopTime="0.00" timeLoss="65.05" rerouteNo="0" devices="tripinfo_flow01.13" vType="CarA" speedFactor="0.94" vaporized=""/>
    <tripinfo id="flow02.13" depart="143.00" departLane="n_t_0" departPos="5.10" departSpeed="0.00" departDelay="1.45" arrival="213.00" arrivalLane="t_w_0" arrivalPos="136.25" arrivalSpeed="16.08" duration="70.00" routeLength="293.40" waitingTime="24.00" waitingCount="2" stopTime="0.00" timeLoss="50.63" rerouteNo="0" devices="tripinfo_flow02.13" vType="CarA" speedFactor="1.16" vaporized=""/>
    <tripinfo id="flow01.14" depart="126.00" departLane="n_t_0" departPos="5.10" departSpeed="0.00" departDelay="1.91" arrival="214.00" arrivalLane="t_s_0" arrivalPos="136.25" arrivalSpeed="14.20" duration="88.00" routeLength="294.90" waitingTime="38.00" waitingCount="3" stopTime="0.00" timeLoss="67.66" rerouteNo="0" devices="tripinfo_flow01.14" vType="CarA" speedFactor="1.09" vaporized=""/>
    <tripinfo id="flow02.15" depart="146.00" departLane="n_t_0" departPos="5.10" departSpeed="0.00" departDelay="0.34" arrival="214.00" arrivalLane="t_w_0" arrivalPos="136.25" arrivalSpeed="15.75" duration="68.00" routeLength="293.40" waitingTime="22.00" waitingCount="3" stopTime="0.00" timeLoss="48.77" rerouteNo="0" devices="tripinfo_flow02.15" vType="CarA" speedFactor="1.13" vaporized=""/>
    <tripinfo id="flow01.15" depart="134.00" departLane="n_t_0" departPos="5.10" departSpeed="0.00" departDelay="0.42" arrival="215.00" arrivalLane="t_s_0" arrivalPos="136.25" arrivalSpeed="14.43" duration="81.00" routeLength="294.90" waitingTime="32.00" waitingCount="2" stopTime="0.00" timeLoss="60.43" rerouteNo="0" devices="tripinfo_flow01.15" vType="CarA" speedFactor="1.04" vaporized=""/>
    <tripinfo id="flow02.14" depart="145.00" departLane="n_t_0" departPos="5.10" departSpeed="0.00" departDelay="0.97" arrival="216.00" arrivalLane="t_w_0" arrivalPos="136.25" arrivalSpeed="14.29" duration="71.00" routeLength="293.40" waitingTime="20.00" waitingCount="3" stopTime="0.00" timeLoss="50.45" rerouteNo="0" devices="tripinfo_flow02.14" vType="CarA" speedFactor="1.05" vaporized=""/>